 DBCSR| Multiplication driver                                               XSMM
 DBCSR| Multrec recursion limit                                              512
 DBCSR| Multiplication stack size                                           1000
 DBCSR| Maximum elements for images                                    UNLIMITED
 DBCSR| Multiplicative factor virtual images                                   1
 DBCSR| Multiplication size stacks                                             3
 DBCSR| Number of 3D layers                                               SINGLE
 DBCSR| Use MPI memory allocation                                              T
 DBCSR| Use RMA algorithm                                                      F
 DBCSR| Use Communication thread                                               T
 DBCSR| Communication thread load                                             87


  **** **** ******  **  PROGRAM STARTED AT               2019-06-19 01:01:55.748
 ***** ** ***  *** **   PROGRAM STARTED ON                              nid00234
 **    ****   ******    PROGRAM STARTED BY                                vamodi
 ***** **    ** ** **   PROGRAM PROCESS ID                                  6656
  **** **  *******  **  PROGRAM STARTED IN /wrk/vamodi/BioExcel-2/Summer_school-
                                           2019/neb/gfp-pt/QMMM/final

 CP2K| version string:                                          CP2K version 6.1
 CP2K| source code revision number:                                    svn:18464
 CP2K| cp2kflags: libint fftw3 libxc elpa=201605 elpa_qr parallel mpi3 scalapack
 CP2K|             xsmm has_no_shared_glibc plumed2
 CP2K| is freely available from                            https://www.cp2k.org/
 CP2K| Program compiled at                         Fri Jun 15 12:47:08 EEST 2018
 CP2K| Program compiled on                                              nid00390
 CP2K| Program compiled for                                           sisu_elpaU
 CP2K| Data directory path                     /appl/chem/cp2k/6.1/cp2k-6.1/data
 CP2K| Input file name                                                 input.inp

 GLOBAL| Force Environment number                                              1
 GLOBAL| Basis set file name                                        BASIS_MOLOPT
 GLOBAL| Potential file name                                           POTENTIAL
 GLOBAL| MM Potential file name                                     MM_POTENTIAL
 GLOBAL| Coordinate file name                           gfp-s65t_h148d-final.pdb
 GLOBAL| Method name                                                        CP2K
 GLOBAL| Project name                                              GEO_OPT-FINAL
 GLOBAL| Preferred FFT library                                             FFTW3
 GLOBAL| Preferred diagonalization lib.                                       SL
 GLOBAL| Run type                                                        GEO_OPT
 GLOBAL| All-to-all communication in single precision                          F
 GLOBAL| FFTs using library dependent lengths                                  F
 GLOBAL| Global print level                                                  LOW
 GLOBAL| Total number of message passing processes                           192
 GLOBAL| Number of threads for this process                                    1
 GLOBAL| This output is from process                                           0
 GLOBAL| CPU model name :  Intel(R) Xeon(R) CPU E5-2690 v3 @ 2.60GHz

 MEMORY| system memory details [Kb]
 MEMORY|                        rank 0           min           max       average
 MEMORY| MemTotal             65975120      65975120      65975120      65975120
 MEMORY| MemFree              61359288      61271292      61367244      61320101
 MEMORY| Buffers                     0             0             0             0
 MEMORY| Cached                 196004        193152        197972        195780
 MEMORY| Slab                   247036        247036        250636        248335
 MEMORY| SReclaimable             7752          7600          7752          7674
 MEMORY| MemLikelyFree        61563044      61475692      61570948      61523555



                      ************* ******** ***********   
                     ************* **********************  
                     ****     **** ****      ***********   
                     ******** ****  *******     ****       
                     *******  ****   *******   ****        
                     ****     ****       ****  ****        
                     ****     **** **********  ****        
                      ****     **** ********    ****       
                     FRONTIERS IN SIMULATION TECHNOLOGY    
                                                           
                        C.J. Mundy, S. Balasubramanian,    
                     Ken Bagchi, J. Hutter, Ari Seitsonen  
                      IFW Kuo, T. Laino, J. VandeVondele   
                                 Version 1.0               

                                                           


 EWALD| Summation is done by:                                               SPME
 EWALD| Alpha parameter [       ANGSTROM^-1]                              0.4000
 EWALD| Real Space Cutoff [          ANGSTROM]                            8.4348
 EWALD| G-space max. Miller index                         40        40        40
 EWALD| Spline interpolation order                                             6

 FORCEFIELD| WARNING: A non Critical ForceField parameter is missing! CP2K GOES!
 FORCEFIELD| Non critical parameters are:Urey-Bradley,Torsions,Impropers, Opbends and 1-4
 FORCEFIELD| All missing parameters will not contribute to the potential energy!
 FORCEFIELD| Activate the print key FF_INFO to have a list of missing parameters

 CHARGE_INFO| Total Charge of the Classical System:                     1.088045

 SPLINE_INFO| Generating 40186 splines for NONBONDED14 interactions 
              Due to 283 different atomic kinds
  ...4018  ...8036  ...12054  ...16072  ...20090  ...24108  ...28126  ...32144  ...36162  ...40180
 SPLINE_INFO| Number of unique splines computed:            154
 SPLINE_INFO| Done

 SPLINE_INFO| Generating 40186 splines for NONBONDED interactions 
              Due to 283 different atomic kinds
  ...4018  ...8036  ...12054  ...16072  ...20090  ...24108  ...28126  ...32144  ...36162  ...40180
 SPLINE_INFO| Number of unique splines computed:            154
 SPLINE_INFO| Done

 *******************************************************************************
 *******************************************************************************
 **                                                                           **
 **     #####                         ##              ##                      **
 **    ##   ##            ##          ##              ##                      **
 **   ##     ##                       ##            ######                    **
 **   ##     ##  ##   ##  ##   #####  ##  ##   ####   ##    #####    #####    **
 **   ##     ##  ##   ##  ##  ##      ## ##   ##      ##   ##   ##  ##   ##   **
 **   ##  ## ##  ##   ##  ##  ##      ####     ###    ##   ######   ######    **
 **    ##  ###   ##   ##  ##  ##      ## ##      ##   ##   ##       ##        **
 **     #######   #####   ##   #####  ##  ##  ####    ##    #####   ##        **
 **           ##                                                    ##        **
 **                                                                           **
 **                                                ... make the atoms dance   **
 **                                                                           **
 **            Copyright (C) by CP2K developers group (2000 - 2018)           **
 **                                                                           **
 *******************************************************************************


 TOTAL NUMBERS AND MAXIMUM NUMBERS

  Total number of            - Atomic kinds:                                   5
                             - Atoms:                                         29
                             - Shell sets:                                    29
                             - Shells:                                       123
                             - Primitive Cartesian functions:                203
                             - Cartesian basis functions:                    307
                             - Spherical basis functions:                    289

  Maximum angular momentum of- Orbital basis functions:                        2
                             - Local part of the GTH pseudopotential:          2
                             - Non-local part of the GTH pseudopotential:      0


 SCF PARAMETERS         Density guess:                                    ATOMIC
                        --------------------------------------------------------
                        max_scf:                                             300
                        max_scf_history:                                       0
                        max_diis:                                              4
                        --------------------------------------------------------
                        eps_scf:                                        1.00E-06
                        eps_scf_history:                                0.00E+00
                        eps_diis:                                       1.00E-01
                        eps_eigval:                                     1.00E-05
                        --------------------------------------------------------
                        level_shift [a.u.]:                                 0.00
                        --------------------------------------------------------
                        No outer SCF

 *******************************************************************************
 *******************************************************************************
 **                                                                           **
 **             #######  ##     ## ##     ## ##     ##                        **
 **            ##     ## ###   ### ###   ### ###   ###                        **
 **            ##     ## #### #### #### #### #### ####                        **
 **            ##     ## ## ### ## ## ### ## ## ### ##                        **
 **            ##  ## ## ##     ## ##     ## ##     ##                        **
 **            ##    ##  ##     ## ##     ## ##     ##  T.Laino and F.Mohamed **
 **             ##### ## ##     ## ##     ## ##     ##  2005 - 2015           **
 **                                                                           **
 **                                                     Calculation Started.. **
 *******************************************************************************
 *******************************************************************************

  Translating the system in order to center the QM fragment in the QM box.

 *******************************************************************************
 ***                     STARTING GEOMETRY OPTIMIZATION                      ***
 ***                                 L-BFGS                                  ***
 *******************************************************************************

 --------------------------
 OPTIMIZATION STEP:      1
 --------------------------

  Translating the system in order to center the QM fragment in the QM box.

 Number of electrons:                                                         94
 Number of occupied orbitals:                                                 47
 Number of molecular orbitals:                                                47

 Number of orbital functions:                                                289
 Number of independent orbital functions:                                    289

 Extrapolation method: initial_guess


 SCF WAVEFUNCTION OPTIMIZATION

  ----------------------------------- OT ---------------------------------------
  Minimizer      : DIIS                : direct inversion
                                         in the iterative subspace
                                         using   7 DIIS vectors
                                         safer DIIS on
  Preconditioner : FULL_SINGLE_INVERSE : inversion of 
                                         H + eS - 2*(Sc)(c^T*H*c+const)(Sc)^T
  Precond_solver : DEFAULT
  stepsize       :    0.15000000                  energy_gap     :    0.08000000
  eps_taylor     :   0.10000E-15                  max_taylor     :             4
  ----------------------------------- OT ---------------------------------------

  Step     Update method      Time    Convergence         Total energy    Change
  ------------------------------------------------------------------------------
  Decoupling Energy:                                               0.0189566592
  Recoupling Energy:                                              -0.0093475848
     1 OT DIIS     0.15E+00    0.4     0.07014073      -159.9816528402 -1.60E+02
  Decoupling Energy:                                               0.0312916589
  Recoupling Energy:                                              -0.0095495225
     2 OT DIIS     0.15E+00    0.4     0.05640383      -165.0051655216 -5.02E+00
  Decoupling Energy:                                               0.0235408849
  Recoupling Energy:                                              -0.0094253997
     3 OT DIIS     0.15E+00    0.4     0.04050881      -167.6095716685 -2.60E+00
  Decoupling Energy:                                               0.0276193322
  Recoupling Energy:                                              -0.0094890260
     4 OT DIIS     0.15E+00    0.4     0.02695019      -168.7326488895 -1.12E+00
  Decoupling Energy:                                               0.0264514071
  Recoupling Energy:                                              -0.0094717162
     5 OT DIIS     0.15E+00    0.4     0.02380118      -169.4550419940 -7.22E-01
  Decoupling Energy:                                               0.0263092092
  Recoupling Energy:                                              -0.0094677396
     6 OT DIIS     0.15E+00    0.4     0.01680379      -169.7370410608 -2.82E-01
  Decoupling Energy:                                               0.0267678196
  Recoupling Energy:                                              -0.0094749348
     7 OT DIIS     0.15E+00    0.4     0.01193936      -169.9732460694 -2.36E-01
  Decoupling Energy:                                               0.0268196519
  Recoupling Energy:                                              -0.0094755335
     8 OT DIIS     0.15E+00    0.4     0.00887817      -170.1466182127 -1.73E-01
  Decoupling Energy:                                               0.0270202922
  Recoupling Energy:                                              -0.0094789759
     9 OT DIIS     0.15E+00    0.4     0.00814898      -170.2507631317 -1.04E-01
  Decoupling Energy:                                               0.0273062070
  Recoupling Energy:                                              -0.0094833441
    10 OT DIIS     0.15E+00    0.4     0.00686320      -170.3350961110 -8.43E-02
  Decoupling Energy:                                               0.0275060007
  Recoupling Energy:                                              -0.0094865848
    11 OT DIIS     0.15E+00    0.4     0.00558656      -170.3997178882 -6.46E-02
  Decoupling Energy:                                               0.0276515608
  Recoupling Energy:                                              -0.0094888724
    12 OT DIIS     0.15E+00    0.4     0.00473597      -170.4622029555 -6.25E-02
  Decoupling Energy:                                               0.0278541910
  Recoupling Energy:                                              -0.0094921375
    13 OT DIIS     0.15E+00    0.4     0.00393966      -170.5106881764 -4.85E-02
  Decoupling Energy:                                               0.0279868963
  Recoupling Energy:                                              -0.0094942515
    14 OT DIIS     0.15E+00    0.4     0.00359356      -170.5519707844 -4.13E-02
  Decoupling Energy:                                               0.0279597950
  Recoupling Energy:                                              -0.0094937714
    15 OT DIIS     0.15E+00    0.4     0.00360242      -170.5789420436 -2.70E-02
  Decoupling Energy:                                               0.0280270871
  Recoupling Energy:                                              -0.0094947773
    16 OT DIIS     0.15E+00    0.4     0.00332030      -170.6056269637 -2.67E-02
  Decoupling Energy:                                               0.0281044533
  Recoupling Energy:                                              -0.0094959859
    17 OT DIIS     0.15E+00    0.4     0.00281100      -170.6239125601 -1.83E-02
  Decoupling Energy:                                               0.0281195861
  Recoupling Energy:                                              -0.0094962002
    18 OT DIIS     0.15E+00    0.4     0.00277291      -170.6345617626 -1.06E-02
  Decoupling Energy:                                               0.0281162038
  Recoupling Energy:                                              -0.0094960907
    19 OT DIIS     0.15E+00    0.4     0.00243746      -170.6500297640 -1.55E-02
  Decoupling Energy:                                               0.0281188529
  Recoupling Energy:                                              -0.0094960894
    20 OT DIIS     0.15E+00    0.4     0.00209711      -170.6568177533 -6.79E-03
  Decoupling Energy:                                               0.0281351897
  Recoupling Energy:                                              -0.0094962533
    21 OT DIIS     0.15E+00    0.4     0.00190074      -170.6732493776 -1.64E-02
  Decoupling Energy:                                               0.0281483568
  Recoupling Energy:                                              -0.0094963734
    22 OT DIIS     0.15E+00    0.4     0.00176113      -170.6872434273 -1.40E-02
  Decoupling Energy:                                               0.0281504504
  Recoupling Energy:                                              -0.0094963988
    23 OT DIIS     0.15E+00    0.4     0.00182830      -170.6917165102 -4.47E-03
  Decoupling Energy:                                               0.0281389120
  Recoupling Energy:                                              -0.0094960961
    24 OT DIIS     0.15E+00    0.4     0.00163771      -170.7021299011 -1.04E-02
  Decoupling Energy:                                               0.0281668054
  Recoupling Energy:                                              -0.0094965108
    25 OT DIIS     0.15E+00    0.4     0.00150683      -170.7084264102 -6.30E-03
  Decoupling Energy:                                               0.0281987573
  Recoupling Energy:                                              -0.0094970123
    26 OT DIIS     0.15E+00    0.4     0.00155309      -170.7138141198 -5.39E-03
  Decoupling Energy:                                               0.0281979569
  Recoupling Energy:                                              -0.0094969347
    27 OT DIIS     0.15E+00    0.4     0.00143223      -170.7208484993 -7.03E-03
  Decoupling Energy:                                               0.0281902778
  Recoupling Energy:                                              -0.0094967608
    28 OT DIIS     0.15E+00    0.4     0.00128155      -170.7235180941 -2.67E-03
  Decoupling Energy:                                               0.0282183911
  Recoupling Energy:                                              -0.0094971853
    29 OT DIIS     0.15E+00    0.4     0.00118021      -170.7298989906 -6.38E-03
  Decoupling Energy:                                               0.0282348602
  Recoupling Energy:                                              -0.0094974163
    30 OT DIIS     0.15E+00    0.4     0.00115357      -170.7352396616 -5.34E-03
  Decoupling Energy:                                               0.0282525454
  Recoupling Energy:                                              -0.0094976972
    31 OT DIIS     0.15E+00    0.4     0.00114019      -170.7376209393 -2.38E-03
  Decoupling Energy:                                               0.0282737887
  Recoupling Energy:                                              -0.0094980235
    32 OT DIIS     0.15E+00    0.4     0.00111088      -170.7426047655 -4.98E-03
  Decoupling Energy:                                               0.0282857990
  Recoupling Energy:                                              -0.0094981996
    33 OT DIIS     0.15E+00    0.4     0.00110662      -170.7466414648 -4.04E-03
  Decoupling Energy:                                               0.0282977661
  Recoupling Energy:                                              -0.0094983864
    34 OT DIIS     0.15E+00    0.4     0.00110244      -170.7501469787 -3.51E-03
  Decoupling Energy:                                               0.0283000279
  Recoupling Energy:                                              -0.0094984112
    35 OT DIIS     0.15E+00    0.4     0.00105921      -170.7538336520 -3.69E-03
  Decoupling Energy:                                               0.0283106566
  Recoupling Energy:                                              -0.0094985809
    36 OT DIIS     0.15E+00    0.4     0.00104143      -170.7552725475 -1.44E-03
  Decoupling Energy:                                               0.0283144539
  Recoupling Energy:                                              -0.0094986361
    37 OT DIIS     0.15E+00    0.4     0.00102871      -170.7595933360 -4.32E-03
  Decoupling Energy:                                               0.0283168057
  Recoupling Energy:                                              -0.0094986718
    38 OT DIIS     0.15E+00    0.4     0.00102271      -170.7650168545 -5.42E-03
  Decoupling Energy:                                               0.0283250588
  Recoupling Energy:                                              -0.0094988116
    39 OT DIIS     0.15E+00    0.4     0.00104681      -170.7696582560 -4.64E-03
  Decoupling Energy:                                               0.0282091159
  Recoupling Energy:                                              -0.0094968960
    40 OT DIIS     0.15E+00    0.4     0.00102449      -170.7768009687 -7.14E-03
  Decoupling Energy:                                               0.0282318275
  Recoupling Energy:                                              -0.0094972670
    41 OT DIIS     0.15E+00    0.4     0.00096059      -170.7782767204 -1.48E-03
  Decoupling Energy:                                               0.0282703605
  Recoupling Energy:                                              -0.0094979032
    42 OT DIIS     0.15E+00    0.4     0.00102049      -170.7799118667 -1.64E-03
  Decoupling Energy:                                               0.0279747704
  Recoupling Energy:                                              -0.0094931017
    43 OT DIIS     0.15E+00    0.4     0.00103534      -170.7922166285 -1.23E-02
  Decoupling Energy:                                               0.0281275064
  Recoupling Energy:                                              -0.0094955564
    44 OT DIIS     0.15E+00    0.4     0.00110858      -170.7915256631  6.91E-04
  Decoupling Energy:                                               0.0276228016
  Recoupling Energy:                                              -0.0094874390
    45 OT DIIS     0.15E+00    0.4     0.00132068      -170.7999793523 -8.45E-03
  Decoupling Energy:                                               0.0278056662
  Recoupling Energy:                                              -0.0094903561
    46 OT DIIS     0.15E+00    0.4     0.00075903      -170.8003640345 -3.85E-04
  Decoupling Energy:                                               0.0277676993
  Recoupling Energy:                                              -0.0094897462
    47 OT DIIS     0.15E+00    0.4     0.00059549      -170.8017019914 -1.34E-03
  Decoupling Energy:                                               0.0278853405
  Recoupling Energy:                                              -0.0094916196
    48 OT DIIS     0.15E+00    0.4     0.00058984      -170.8017974370 -9.54E-05
  Decoupling Energy:                                               0.0277039059
  Recoupling Energy:                                              -0.0094886991
    49 OT DIIS     0.15E+00    0.4     0.00042601      -170.8036138462 -1.82E-03
  Decoupling Energy:                                               0.0277414635
  Recoupling Energy:                                              -0.0094892784
    50 OT DIIS     0.15E+00    0.4     0.00036949      -170.8042611053 -6.47E-04
  Decoupling Energy:                                               0.0276812860
  Recoupling Energy:                                              -0.0094883095
    51 OT DIIS     0.15E+00    0.4     0.00033378      -170.8047561343 -4.95E-04
  Decoupling Energy:                                               0.0276679174
  Recoupling Energy:                                              -0.0094880862
    52 OT DIIS     0.15E+00    0.4     0.00029979      -170.8051012921 -3.45E-04
  Decoupling Energy:                                               0.0276791096
  Recoupling Energy:                                              -0.0094882443
    53 OT DIIS     0.15E+00    0.4     0.00026564      -170.8056160492 -5.15E-04
  Decoupling Energy:                                               0.0276579408
  Recoupling Energy:                                              -0.0094879077
    54 OT DIIS     0.15E+00    0.4     0.00027129      -170.8057316372 -1.16E-04
  Decoupling Energy:                                               0.0276403590
  Recoupling Energy:                                              -0.0094876178
    55 OT DIIS     0.15E+00    0.4     0.00025039      -170.8059646988 -2.33E-04
  Decoupling Energy:                                               0.0276366603
  Recoupling Energy:                                              -0.0094875470
    56 OT DIIS     0.15E+00    0.4     0.00018849      -170.8062080446 -2.43E-04
  Decoupling Energy:                                               0.0276354891
  Recoupling Energy:                                              -0.0094875321
    57 OT DIIS     0.15E+00    0.4     0.00020606      -170.8063070551 -9.90E-05
  Decoupling Energy:                                               0.0276227071
  Recoupling Energy:                                              -0.0094873179
    58 OT DIIS     0.15E+00    0.4     0.00017183      -170.8064742916 -1.67E-04
  Decoupling Energy:                                               0.0276167879
  Recoupling Energy:                                              -0.0094872205
    59 OT DIIS     0.15E+00    0.4     0.00016932      -170.8065861680 -1.12E-04
  Decoupling Energy:                                               0.0276126863
  Recoupling Energy:                                              -0.0094871533
    60 OT DIIS     0.15E+00    0.4     0.00016010      -170.8066819757 -9.58E-05
  Decoupling Energy:                                               0.0276036562
  Recoupling Energy:                                              -0.0094870054
    61 OT DIIS     0.15E+00    0.4     0.00015041      -170.8068459754 -1.64E-04
  Decoupling Energy:                                               0.0276013970
  Recoupling Energy:                                              -0.0094869687
    62 OT DIIS     0.15E+00    0.4     0.00015171      -170.8068984301 -5.25E-05
  Decoupling Energy:                                               0.0275979337
  Recoupling Energy:                                              -0.0094869127
    63 OT DIIS     0.15E+00    0.4     0.00015125      -170.8069963681 -9.79E-05
  Decoupling Energy:                                               0.0275918076
  Recoupling Energy:                                              -0.0094868119
    64 OT DIIS     0.15E+00    0.4     0.00013762      -170.8071039079 -1.08E-04
  Decoupling Energy:                                               0.0275887382
  Recoupling Energy:                                              -0.0094867637
    65 OT DIIS     0.15E+00    0.4     0.00014168      -170.8072105316 -1.07E-04
  Decoupling Energy:                                               0.0275842284
  Recoupling Energy:                                              -0.0094866892
    66 OT DIIS     0.15E+00    0.4     0.00013077      -170.8073089463 -9.84E-05
  Decoupling Energy:                                               0.0275801548
  Recoupling Energy:                                              -0.0094866225
    67 OT DIIS     0.15E+00    0.4     0.00012953      -170.8074170279 -1.08E-04
  Decoupling Energy:                                               0.0275771861
  Recoupling Energy:                                              -0.0094865748
    68 OT DIIS     0.15E+00    0.4     0.00012466      -170.8075087631 -9.17E-05
  Decoupling Energy:                                               0.0275712335
  Recoupling Energy:                                              -0.0094864786
    69 OT DIIS     0.15E+00    0.4     0.00011841      -170.8076705168 -1.62E-04
  Decoupling Energy:                                               0.0275692648
  Recoupling Energy:                                              -0.0094864459
    70 OT DIIS     0.15E+00    0.4     0.00011980      -170.8077515158 -8.10E-05
  Decoupling Energy:                                               0.0275647001
  Recoupling Energy:                                              -0.0094863719
    71 OT DIIS     0.15E+00    0.4     0.00012082      -170.8078804202 -1.29E-04
  Decoupling Energy:                                               0.0275609893
  Recoupling Energy:                                              -0.0094863114
    72 OT DIIS     0.15E+00    0.4     0.00010761      -170.8079539425 -7.35E-05
  Decoupling Energy:                                               0.0275579482
  Recoupling Energy:                                              -0.0094862631
    73 OT DIIS     0.15E+00    0.4     0.00010716      -170.8080825445 -1.29E-04
  Decoupling Energy:                                               0.0275537402
  Recoupling Energy:                                              -0.0094861935
    74 OT DIIS     0.15E+00    0.4     0.00010294      -170.8081675323 -8.50E-05
  Decoupling Energy:                                               0.0275499081
  Recoupling Energy:                                              -0.0094861305
    75 OT DIIS     0.15E+00    0.4     0.00010045      -170.8082645590 -9.70E-05
  Decoupling Energy:                                               0.0275467588
  Recoupling Energy:                                              -0.0094860798
    76 OT DIIS     0.15E+00    0.4     0.00009521      -170.8083385482 -7.40E-05
  Decoupling Energy:                                               0.0275432639
  Recoupling Energy:                                              -0.0094860232
    77 OT DIIS     0.15E+00    0.4     0.00008552      -170.8084175286 -7.90E-05
  Decoupling Energy:                                               0.0275417500
  Recoupling Energy:                                              -0.0094859980
    78 OT DIIS     0.15E+00    0.4     0.00008517      -170.8084521561 -3.46E-05
  Decoupling Energy:                                               0.0275401693
  Recoupling Energy:                                              -0.0094859719
    79 OT DIIS     0.15E+00    0.4     0.00008069      -170.8085061598 -5.40E-05
  Decoupling Energy:                                               0.0275380376
  Recoupling Energy:                                              -0.0094859373
    80 OT DIIS     0.15E+00    0.4     0.00008088      -170.8085402534 -3.41E-05
  Decoupling Energy:                                               0.0275361184
  Recoupling Energy:                                              -0.0094859077
    81 OT DIIS     0.15E+00    0.4     0.00008044      -170.8085920144 -5.18E-05
  Decoupling Energy:                                               0.0275345931
  Recoupling Energy:                                              -0.0094858820
    82 OT DIIS     0.15E+00    0.4     0.00007037      -170.8086158860 -2.39E-05
  Decoupling Energy:                                               0.0275331016
  Recoupling Energy:                                              -0.0094858576
    83 OT DIIS     0.15E+00    0.4     0.00006777      -170.8086373052 -2.14E-05
  Decoupling Energy:                                               0.0275329878
  Recoupling Energy:                                              -0.0094858557
    84 OT DIIS     0.15E+00    0.4     0.00006528      -170.8086469830 -9.68E-06
  Decoupling Energy:                                               0.0275331623
  Recoupling Energy:                                              -0.0094858585
    85 OT DIIS     0.15E+00    0.4     0.00006276      -170.8086722243 -2.52E-05
  Decoupling Energy:                                               0.0275334421
  Recoupling Energy:                                              -0.0094858632
    86 OT DIIS     0.15E+00    0.4     0.00006147      -170.8086837286 -1.15E-05
  Decoupling Energy:                                               0.0275348760
  Recoupling Energy:                                              -0.0094858870
    87 OT DIIS     0.15E+00    0.4     0.00005950      -170.8086986028 -1.49E-05
  Decoupling Energy:                                               0.0275370394
  Recoupling Energy:                                              -0.0094859227
    88 OT DIIS     0.15E+00    0.4     0.00005989      -170.8087203629 -2.18E-05
  Decoupling Energy:                                               0.0275401752
  Recoupling Energy:                                              -0.0094859748
    89 OT DIIS     0.15E+00    0.4     0.00005977      -170.8087487476 -2.84E-05
  Decoupling Energy:                                               0.0275409653
  Recoupling Energy:                                              -0.0094859874
    90 OT DIIS     0.15E+00    0.4     0.00005107      -170.8087766697 -2.79E-05
  Decoupling Energy:                                               0.0275417770
  Recoupling Energy:                                              -0.0094860011
    91 OT DIIS     0.15E+00    0.4     0.00005046      -170.8087863016 -9.63E-06
  Decoupling Energy:                                               0.0275426916
  Recoupling Energy:                                              -0.0094860163
    92 OT DIIS     0.15E+00    0.4     0.00004656      -170.8087971251 -1.08E-05
  Decoupling Energy:                                               0.0275432191
  Recoupling Energy:                                              -0.0094860251
    93 OT DIIS     0.15E+00    0.4     0.00004605      -170.8088111523 -1.40E-05
  Decoupling Energy:                                               0.0275438780
  Recoupling Energy:                                              -0.0094860363
    94 OT DIIS     0.15E+00    0.4     0.00004604      -170.8088305763 -1.94E-05
  Decoupling Energy:                                               0.0275446593
  Recoupling Energy:                                              -0.0094860496
    95 OT DIIS     0.15E+00    0.4     0.00004527      -170.8088460482 -1.55E-05
  Decoupling Energy:                                               0.0275455488
  Recoupling Energy:                                              -0.0094860646
    96 OT DIIS     0.15E+00    0.4     0.00004334      -170.8088630890 -1.70E-05
  Decoupling Energy:                                               0.0275460640
  Recoupling Energy:                                              -0.0094860735
    97 OT DIIS     0.15E+00    0.4     0.00004258      -170.8088787717 -1.57E-05
  Decoupling Energy:                                               0.0275461896
  Recoupling Energy:                                              -0.0094860756
    98 OT DIIS     0.15E+00    0.4     0.00004101      -170.8088863752 -7.60E-06
  Decoupling Energy:                                               0.0275464118
  Recoupling Energy:                                              -0.0094860799
    99 OT DIIS     0.15E+00    0.4     0.00004124      -170.8088987244 -1.23E-05
  Decoupling Energy:                                               0.0275467625
  Recoupling Energy:                                              -0.0094860860
   100 OT DIIS     0.15E+00    0.4     0.00004022      -170.8089092488 -1.05E-05
  Decoupling Energy:                                               0.0275470586
  Recoupling Energy:                                              -0.0094860912
   101 OT DIIS     0.15E+00    0.4     0.00003977      -170.8089259524 -1.67E-05
  Decoupling Energy:                                               0.0275471620
  Recoupling Energy:                                              -0.0094860934
   102 OT DIIS     0.15E+00    0.4     0.00003891      -170.8089406158 -1.47E-05
  Decoupling Energy:                                               0.0275472523
  Recoupling Energy:                                              -0.0094860953
   103 OT DIIS     0.15E+00    0.4     0.00003816      -170.8089497739 -9.16E-06
  Decoupling Energy:                                               0.0275472807
  Recoupling Energy:                                              -0.0094860960
   104 OT DIIS     0.15E+00    0.4     0.00003751      -170.8089572639 -7.49E-06
  Decoupling Energy:                                               0.0275472440
  Recoupling Energy:                                              -0.0094860959
   105 OT DIIS     0.15E+00    0.4     0.00003748      -170.8089722793 -1.50E-05
  Decoupling Energy:                                               0.0275469794
  Recoupling Energy:                                              -0.0094860915
   106 OT DIIS     0.15E+00    0.4     0.00003783      -170.8089787363 -6.46E-06
  Decoupling Energy:                                               0.0275466523
  Recoupling Energy:                                              -0.0094860870
   107 OT DIIS     0.15E+00    0.4     0.00003763      -170.8090010911 -2.24E-05
  Decoupling Energy:                                               0.0275466577
  Recoupling Energy:                                              -0.0094860874
   108 OT DIIS     0.15E+00    0.4     0.00003668      -170.8090120356 -1.09E-05
  Decoupling Energy:                                               0.0275463740
  Recoupling Energy:                                              -0.0094860830
   109 OT DIIS     0.15E+00    0.4     0.00003546      -170.8090270271 -1.50E-05
  Decoupling Energy:                                               0.0275460889
  Recoupling Energy:                                              -0.0094860785
   110 OT DIIS     0.15E+00    0.4     0.00003471      -170.8090359834 -8.96E-06
  Decoupling Energy:                                               0.0275454570
  Recoupling Energy:                                              -0.0094860685
   111 OT DIIS     0.15E+00    0.4     0.00003474      -170.8090553710 -1.94E-05
  Decoupling Energy:                                               0.0275447936
  Recoupling Energy:                                              -0.0094860577
   112 OT DIIS     0.15E+00    0.4     0.00003482      -170.8090745948 -1.92E-05
  Decoupling Energy:                                               0.0275437414
  Recoupling Energy:                                              -0.0094860408
   113 OT DIIS     0.15E+00    0.4     0.00003758      -170.8091034067 -2.88E-05
  Decoupling Energy:                                               0.0275430043
  Recoupling Energy:                                              -0.0094860287
   114 OT DIIS     0.15E+00    0.4     0.00003615      -170.8091194619 -1.61E-05
  Decoupling Energy:                                               0.0275429402
  Recoupling Energy:                                              -0.0094860277
   115 OT DIIS     0.15E+00    0.4     0.00003548      -170.8091211277 -1.67E-06
  Decoupling Energy:                                               0.0275423815
  Recoupling Energy:                                              -0.0094860187
   116 OT SD       0.15E+00    0.4     0.00003257      -170.8091311778 -1.01E-05
  Decoupling Energy:                                               0.0275422633
  Recoupling Energy:                                              -0.0094860170
   117 OT DIIS     0.15E+00    0.4     0.00003598      -170.8091330692 -1.89E-06
  Decoupling Energy:                                               0.0275408473
  Recoupling Energy:                                              -0.0094859938
   118 OT DIIS     0.15E+00    0.4     0.00003413      -170.8091609175 -2.78E-05
  Decoupling Energy:                                               0.0275397841
  Recoupling Energy:                                              -0.0094859760
   119 OT DIIS     0.15E+00    0.4     0.00003226      -170.8091779334 -1.70E-05
  Decoupling Energy:                                               0.0275368627
  Recoupling Energy:                                              -0.0094859281
   120 OT DIIS     0.15E+00    0.4     0.00004018      -170.8092186984 -4.08E-05
  Decoupling Energy:                                               0.0275349320
  Recoupling Energy:                                              -0.0094858962
   121 OT DIIS     0.15E+00    0.4     0.00004788      -170.8092414672 -2.28E-05
  Decoupling Energy:                                               0.0275345110
  Recoupling Energy:                                              -0.0094858892
   122 OT DIIS     0.15E+00    0.4     0.00004070      -170.8092438712 -2.40E-06
  Decoupling Energy:                                               0.0275320539
  Recoupling Energy:                                              -0.0094858484
   123 OT DIIS     0.15E+00    0.4     0.00005192      -170.8092661038 -2.22E-05
  Decoupling Energy:                                               0.0275312755
  Recoupling Energy:                                              -0.0094858354
   124 OT DIIS     0.15E+00    0.4     0.00003001      -170.8092756955 -9.59E-06
  Decoupling Energy:                                               0.0275307248
  Recoupling Energy:                                              -0.0094858264
   125 OT DIIS     0.15E+00    0.4     0.00003553      -170.8092804246 -4.73E-06
  Decoupling Energy:                                               0.0275284116
  Recoupling Energy:                                              -0.0094857879
   126 OT DIIS     0.15E+00    0.4     0.00002379      -170.8092995956 -1.92E-05
  Decoupling Energy:                                               0.0275272501
  Recoupling Energy:                                              -0.0094857682
   127 OT DIIS     0.15E+00    0.4     0.00002924      -170.8093072713 -7.68E-06
  Decoupling Energy:                                               0.0275256932
  Recoupling Energy:                                              -0.0094857423
   128 OT DIIS     0.15E+00    0.4     0.00002214      -170.8093173585 -1.01E-05
  Decoupling Energy:                                               0.0275248574
  Recoupling Energy:                                              -0.0094857284
   129 OT SD       0.15E+00    0.4     0.00002060      -170.8093234500 -6.09E-06
  Decoupling Energy:                                               0.0275248577
  Recoupling Energy:                                              -0.0094857285
   130 OT DIIS     0.15E+00    0.4     0.00002357      -170.8093241821 -7.32E-07
  Decoupling Energy:                                               0.0275237371
  Recoupling Energy:                                              -0.0094857098
   131 OT DIIS     0.15E+00    0.4     0.00002001      -170.8093323465 -8.16E-06
  Decoupling Energy:                                               0.0275227004
  Recoupling Energy:                                              -0.0094856924
   132 OT DIIS     0.15E+00    0.4     0.00002084      -170.8093375215 -5.17E-06
  Decoupling Energy:                                               0.0275217710
  Recoupling Energy:                                              -0.0094856767
   133 OT DIIS     0.15E+00    0.4     0.00001822      -170.8093442574 -6.74E-06
  Decoupling Energy:                                               0.0275208405
  Recoupling Energy:                                              -0.0094856614
   134 OT DIIS     0.15E+00    0.4     0.00001744      -170.8093498854 -5.63E-06
  Decoupling Energy:                                               0.0275208842
  Recoupling Energy:                                              -0.0094856621
   135 OT DIIS     0.15E+00    0.4     0.00001692      -170.8093506365 -7.51E-07
  Decoupling Energy:                                               0.0275206350
  Recoupling Energy:                                              -0.0094856580
   136 OT DIIS     0.15E+00    0.4     0.00001603      -170.8093529671 -2.33E-06
  Decoupling Energy:                                               0.0275202298
  Recoupling Energy:                                              -0.0094856512
   137 OT DIIS     0.15E+00    0.4     0.00001610      -170.8093555718 -2.60E-06
  Decoupling Energy:                                               0.0275203078
  Recoupling Energy:                                              -0.0094856527
   138 OT DIIS     0.15E+00    0.4     0.00001617      -170.8093578489 -2.28E-06
  Decoupling Energy:                                               0.0275206365
  Recoupling Energy:                                              -0.0094856583
   139 OT DIIS     0.15E+00    0.4     0.00001452      -170.8093596836 -1.83E-06
  Decoupling Energy:                                               0.0275207116
  Recoupling Energy:                                              -0.0094856597
   140 OT DIIS     0.15E+00    0.4     0.00001435      -170.8093602436 -5.60E-07
  Decoupling Energy:                                               0.0275205977
  Recoupling Energy:                                              -0.0094856578
   141 OT DIIS     0.15E+00    0.4     0.00001353      -170.8093623149 -2.07E-06
  Decoupling Energy:                                               0.0275205916
  Recoupling Energy:                                              -0.0094856577
   142 OT DIIS     0.15E+00    0.4     0.00001351      -170.8093629635 -6.49E-07
  Decoupling Energy:                                               0.0275205757
  Recoupling Energy:                                              -0.0094856575
   143 OT DIIS     0.15E+00    0.4     0.00001344      -170.8093635076 -5.44E-07
  Decoupling Energy:                                               0.0275205273
  Recoupling Energy:                                              -0.0094856568
   144 OT DIIS     0.15E+00    0.4     0.00001344      -170.8093649272 -1.42E-06
  Decoupling Energy:                                               0.0275204175
  Recoupling Energy:                                              -0.0094856552
   145 OT DIIS     0.15E+00    0.4     0.00001327      -170.8093681003 -3.17E-06
  Decoupling Energy:                                               0.0275203892
  Recoupling Energy:                                              -0.0094856548
   146 OT DIIS     0.15E+00    0.4     0.00001326      -170.8093690831 -9.83E-07
  Decoupling Energy:                                               0.0275203358
  Recoupling Energy:                                              -0.0094856540
   147 OT DIIS     0.15E+00    0.4     0.00001297      -170.8093706303 -1.55E-06
  Decoupling Energy:                                               0.0275203123
  Recoupling Energy:                                              -0.0094856537
   148 OT DIIS     0.15E+00    0.4     0.00001292      -170.8093719252 -1.29E-06
  Decoupling Energy:                                               0.0275202556
  Recoupling Energy:                                              -0.0094856528
   149 OT DIIS     0.15E+00    0.4     0.00001284      -170.8093731564 -1.23E-06
  Decoupling Energy:                                               0.0275201636
  Recoupling Energy:                                              -0.0094856513
   150 OT DIIS     0.15E+00    0.4     0.00001287      -170.8093759151 -2.76E-06
  Decoupling Energy:                                               0.0275200899
  Recoupling Energy:                                              -0.0094856501
   151 OT DIIS     0.15E+00    0.4     0.00001288      -170.8093776511 -1.74E-06
  Decoupling Energy:                                               0.0275200316
  Recoupling Energy:                                              -0.0094856493
   152 OT DIIS     0.15E+00    0.4     0.00001268      -170.8093796682 -2.02E-06
  Decoupling Energy:                                               0.0275199395
  Recoupling Energy:                                              -0.0094856478
   153 OT DIIS     0.15E+00    0.4     0.00001253      -170.8093821486 -2.48E-06
  Decoupling Energy:                                               0.0275198778
  Recoupling Energy:                                              -0.0094856468
   154 OT DIIS     0.15E+00    0.4     0.00001254      -170.8093834038 -1.26E-06
  Decoupling Energy:                                               0.0275198270
  Recoupling Energy:                                              -0.0094856460
   155 OT DIIS     0.15E+00    0.4     0.00001245      -170.8093848751 -1.47E-06
  Decoupling Energy:                                               0.0275197511
  Recoupling Energy:                                              -0.0094856448
   156 OT DIIS     0.15E+00    0.4     0.00001241      -170.8093875784 -2.70E-06
  Decoupling Energy:                                               0.0275196568
  Recoupling Energy:                                              -0.0094856432
   157 OT DIIS     0.15E+00    0.4     0.00001237      -170.8093896954 -2.12E-06
  Decoupling Energy:                                               0.0275194971
  Recoupling Energy:                                              -0.0094856406
   158 OT DIIS     0.15E+00    0.4     0.00001230      -170.8093942919 -4.60E-06
  Decoupling Energy:                                               0.0275194531
  Recoupling Energy:                                              -0.0094856398
   159 OT DIIS     0.15E+00    0.4     0.00001225      -170.8093954779 -1.19E-06
  Decoupling Energy:                                               0.0275194137
  Recoupling Energy:                                              -0.0094856392
   160 OT DIIS     0.15E+00    0.4     0.00001215      -170.8093971301 -1.65E-06
  Decoupling Energy:                                               0.0275193251
  Recoupling Energy:                                              -0.0094856377
   161 OT DIIS     0.15E+00    0.4     0.00001209      -170.8094000489 -2.92E-06
  Decoupling Energy:                                               0.0275192261
  Recoupling Energy:                                              -0.0094856360
   162 OT DIIS     0.15E+00    0.4     0.00001220      -170.8094029783 -2.93E-06
  Decoupling Energy:                                               0.0275191305
  Recoupling Energy:                                              -0.0094856344
   163 OT DIIS     0.15E+00    0.4     0.00001207      -170.8094065247 -3.55E-06
  Decoupling Energy:                                               0.0275189881
  Recoupling Energy:                                              -0.0094856319
   164 OT DIIS     0.15E+00    0.4     0.00001205      -170.8094124793 -5.95E-06
  Decoupling Energy:                                               0.0275188949
  Recoupling Energy:                                              -0.0094856303
   165 OT SD       0.15E+00    0.4     0.00001195      -170.8094145985 -2.12E-06
  Decoupling Energy:                                               0.0275188992
  Recoupling Energy:                                              -0.0094856304
   166 OT DIIS     0.15E+00    0.4     0.00001188      -170.8094148823 -2.84E-07
  Decoupling Energy:                                               0.0275187132
  Recoupling Energy:                                              -0.0094856272
   167 OT DIIS     0.15E+00    0.4     0.00001169      -170.8094215993 -6.72E-06
  Decoupling Energy:                                               0.0275186587
  Recoupling Energy:                                              -0.0094856262
   168 OT DIIS     0.15E+00    0.4     0.00001189      -170.8094244091 -2.81E-06
  Decoupling Energy:                                               0.0275184183
  Recoupling Energy:                                              -0.0094856219
   169 OT DIIS     0.15E+00    0.4     0.00001178      -170.8094328620 -8.45E-06
  Decoupling Energy:                                               0.0275180200
  Recoupling Energy:                                              -0.0094856147
   170 OT DIIS     0.15E+00    0.4     0.00001386      -170.8094453556 -1.25E-05
  Decoupling Energy:                                               0.0275179497
  Recoupling Energy:                                              -0.0094856135
   171 OT SD       0.15E+00    0.4     0.00001468      -170.8094469648 -1.61E-06
  Decoupling Energy:                                               0.0275179463
  Recoupling Energy:                                              -0.0094856137
   172 OT SD       0.15E+00    0.4     0.00001318      -170.8094472738 -3.09E-07
  Decoupling Energy:                                               0.0275180629
  Recoupling Energy:                                              -0.0094856160
   173 OT DIIS     0.15E+00    0.4     0.00001856      -170.8094474790 -2.05E-07
  Decoupling Energy:                                               0.0275178855
  Recoupling Energy:                                              -0.0094856126
   174 OT DIIS     0.15E+00    0.4     0.00001137      -170.8094504766 -3.00E-06
  Decoupling Energy:                                               0.0275176934
  Recoupling Energy:                                              -0.0094856090
   175 OT DIIS     0.15E+00    0.4     0.00001185      -170.8094565059 -6.03E-06
  Decoupling Energy:                                               0.0275175270
  Recoupling Energy:                                              -0.0094856062
   176 OT DIIS     0.15E+00    0.4     0.00001117      -170.8094633318 -6.83E-06
  Decoupling Energy:                                               0.0275169478
  Recoupling Energy:                                              -0.0094855956
   177 OT DIIS     0.15E+00    0.4     0.00001600      -170.8094779226 -1.46E-05
  Decoupling Energy:                                               0.0275163097
  Recoupling Energy:                                              -0.0094855840
   178 OT SD       0.15E+00    0.4     0.00002329      -170.8094915239 -1.36E-05
  Decoupling Energy:                                               0.0275163802
  Recoupling Energy:                                              -0.0094855859
   179 OT SD       0.15E+00    0.4     0.00001579      -170.8094920231 -4.99E-07
  Decoupling Energy:                                               0.0275165236
  Recoupling Energy:                                              -0.0094855888
   180 OT DIIS     0.15E+00    0.4     0.00002273      -170.8094921607 -1.38E-07
  Decoupling Energy:                                               0.0275165167
  Recoupling Energy:                                              -0.0094855885
   181 OT DIIS     0.15E+00    0.4     0.00001260      -170.8094920801  8.05E-08
  Decoupling Energy:                                               0.0275158912
  Recoupling Energy:                                              -0.0094855769
   182 OT DIIS     0.15E+00    0.4     0.00001675      -170.8095024152 -1.03E-05
  Decoupling Energy:                                               0.0275157325
  Recoupling Energy:                                              -0.0094855744
   183 OT DIIS     0.15E+00    0.4     0.00001071      -170.8095090382 -6.62E-06
  Decoupling Energy:                                               0.0275144063
  Recoupling Energy:                                              -0.0094855502
   184 OT DIIS     0.15E+00    0.4     0.00003419      -170.8095265424 -1.75E-05
  Decoupling Energy:                                               0.0275147762
  Recoupling Energy:                                              -0.0094855574
   185 OT SD       0.15E+00    0.4     0.00001329      -170.8095265249  1.75E-08
  Decoupling Energy:                                               0.0275148057
  Recoupling Energy:                                              -0.0094855582
   186 OT DIIS     0.15E+00    0.4     0.00001357      -170.8095267143 -1.89E-07
  Decoupling Energy:                                               0.0275138548
  Recoupling Energy:                                              -0.0094855410
   187 OT SD       0.15E+00    0.4     0.00001977      -170.8095390122 -1.23E-05
  Decoupling Energy:                                               0.0275141247
  Recoupling Energy:                                              -0.0094855461
   188 OT DIIS     0.15E+00    0.4     0.00001527      -170.8095393324 -3.20E-07
  Decoupling Energy:                                               0.0275139343
  Recoupling Energy:                                              -0.0094855427
   189 OT DIIS     0.15E+00    0.4     0.00001153      -170.8095417616 -2.43E-06
  Decoupling Energy:                                               0.0275135071
  Recoupling Energy:                                              -0.0094855353
   190 OT DIIS     0.15E+00    0.4     0.00000827      -170.8095484027 -6.64E-06
  Decoupling Energy:                                               0.0275126957
  Recoupling Energy:                                              -0.0094855205
   191 OT SD       0.15E+00    0.4     0.00002319      -170.8095553727 -6.97E-06
  Decoupling Energy:                                               0.0275129079
  Recoupling Energy:                                              -0.0094855248
   192 OT DIIS     0.15E+00    0.4     0.00001564      -170.8095557907 -4.18E-07
  Decoupling Energy:                                               0.0275126944
  Recoupling Energy:                                              -0.0094855208
   193 OT DIIS     0.15E+00    0.4     0.00001178      -170.8095583362 -2.55E-06
  Decoupling Energy:                                               0.0275124625
  Recoupling Energy:                                              -0.0094855166
   194 OT DIIS     0.15E+00    0.4     0.00001282      -170.8095607945 -2.46E-06
  Decoupling Energy:                                               0.0275128221
  Recoupling Energy:                                              -0.0094855233
   195 OT DIIS     0.15E+00    0.4     0.00000839      -170.8095605805  2.14E-07
  Decoupling Energy:                                               0.0275125584
  Recoupling Energy:                                              -0.0094855185
   196 OT DIIS     0.15E+00    0.4     0.00000681      -170.8095624626 -1.88E-06
  Decoupling Energy:                                               0.0275123840
  Recoupling Energy:                                              -0.0094855153
   197 OT DIIS     0.15E+00    0.4     0.00000743      -170.8095642908 -1.83E-06
  Decoupling Energy:                                               0.0275123906
  Recoupling Energy:                                              -0.0094855154
   198 OT DIIS     0.15E+00    0.4     0.00000667      -170.8095660804 -1.79E-06
  Decoupling Energy:                                               0.0275122355
  Recoupling Energy:                                              -0.0094855126
   199 OT DIIS     0.15E+00    0.4     0.00000657      -170.8095676499 -1.57E-06
  Decoupling Energy:                                               0.0275121008
  Recoupling Energy:                                              -0.0094855101
   200 OT DIIS     0.15E+00    0.4     0.00000662      -170.8095693385 -1.69E-06
  Decoupling Energy:                                               0.0275121755
  Recoupling Energy:                                              -0.0094855116
   201 OT DIIS     0.15E+00    0.4     0.00000615      -170.8095698840 -5.45E-07
  Decoupling Energy:                                               0.0275120741
  Recoupling Energy:                                              -0.0094855096
   202 OT DIIS     0.15E+00    0.4     0.00000567      -170.8095707876 -9.04E-07
  Decoupling Energy:                                               0.0275121822
  Recoupling Energy:                                              -0.0094855117
   203 OT DIIS     0.15E+00    0.4     0.00000801      -170.8095711113 -3.24E-07
  Decoupling Energy:                                               0.0275120383
  Recoupling Energy:                                              -0.0094855091
   204 OT DIIS     0.15E+00    0.4     0.00000602      -170.8095719858 -8.74E-07
  Decoupling Energy:                                               0.0275118734
  Recoupling Energy:                                              -0.0094855060
   205 OT DIIS     0.15E+00    0.4     0.00000614      -170.8095731702 -1.18E-06
  Decoupling Energy:                                               0.0275116654
  Recoupling Energy:                                              -0.0094855022
   206 OT DIIS     0.15E+00    0.4     0.00000548      -170.8095755186 -2.35E-06
  Decoupling Energy:                                               0.0275116008
  Recoupling Energy:                                              -0.0094855010
   207 OT SD       0.15E+00    0.4     0.00000536      -170.8095763232 -8.05E-07
  Decoupling Energy:                                               0.0275115916
  Recoupling Energy:                                              -0.0094855010
   208 OT SD       0.15E+00    0.4     0.00000531      -170.8095763625 -3.93E-08
  Decoupling Energy:                                               0.0275116001
  Recoupling Energy:                                              -0.0094855013
   209 OT DIIS     0.15E+00    0.4     0.00000898      -170.8095763810 -1.84E-08
  Decoupling Energy:                                               0.0275114996
  Recoupling Energy:                                              -0.0094854993
   210 OT DIIS     0.15E+00    0.4     0.00000404      -170.8095770073 -6.26E-07
  Decoupling Energy:                                               0.0275114415
  Recoupling Energy:                                              -0.0094854983
   211 OT DIIS     0.15E+00    0.4     0.00000389      -170.8095775203 -5.13E-07
  Decoupling Energy:                                               0.0275112776
  Recoupling Energy:                                              -0.0094854956
   212 OT DIIS     0.15E+00    0.4     0.00000379      -170.8095783614 -8.41E-07
  Decoupling Energy:                                               0.0275112457
  Recoupling Energy:                                              -0.0094854950
   213 OT DIIS     0.15E+00    0.4     0.00000374      -170.8095785481 -1.87E-07
  Decoupling Energy:                                               0.0275110704
  Recoupling Energy:                                              -0.0094854920
   214 OT DIIS     0.15E+00    0.4     0.00000342      -170.8095792513 -7.03E-07
  Decoupling Energy:                                               0.0275110379
  Recoupling Energy:                                              -0.0094854915
   215 OT DIIS     0.15E+00    0.4     0.00000327      -170.8095794040 -1.53E-07
  Decoupling Energy:                                               0.0275109203
  Recoupling Energy:                                              -0.0094854895
   216 OT DIIS     0.15E+00    0.4     0.00000310      -170.8095798141 -4.10E-07
  Decoupling Energy:                                               0.0275108214
  Recoupling Energy:                                              -0.0094854880
   217 OT DIIS     0.15E+00    0.4     0.00000309      -170.8095799784 -1.64E-07
  Decoupling Energy:                                               0.0275108068
  Recoupling Energy:                                              -0.0094854876
   218 OT DIIS     0.15E+00    0.4     0.00000300      -170.8095800435 -6.51E-08
  Decoupling Energy:                                               0.0275107492
  Recoupling Energy:                                              -0.0094854867
   219 OT DIIS     0.15E+00    0.4     0.00000284      -170.8095802533 -2.10E-07
  Decoupling Energy:                                               0.0275106433
  Recoupling Energy:                                              -0.0094854849
   220 OT DIIS     0.15E+00    0.4     0.00000272      -170.8095804479 -1.95E-07
  Decoupling Energy:                                               0.0275106203
  Recoupling Energy:                                              -0.0094854845
   221 OT DIIS     0.15E+00    0.4     0.00000274      -170.8095805244 -7.65E-08
  Decoupling Energy:                                               0.0275105550
  Recoupling Energy:                                              -0.0094854834
   222 OT DIIS     0.15E+00    0.4     0.00000256      -170.8095806574 -1.33E-07
  Decoupling Energy:                                               0.0275105298
  Recoupling Energy:                                              -0.0094854830
   223 OT DIIS     0.15E+00    0.4     0.00000252      -170.8095807259 -6.85E-08
  Decoupling Energy:                                               0.0275105019
  Recoupling Energy:                                              -0.0094854825
   224 OT DIIS     0.15E+00    0.4     0.00000249      -170.8095807973 -7.14E-08
  Decoupling Energy:                                               0.0275104551
  Recoupling Energy:                                              -0.0094854817
   225 OT DIIS     0.15E+00    0.4     0.00000244      -170.8095809325 -1.35E-07
  Decoupling Energy:                                               0.0275104356
  Recoupling Energy:                                              -0.0094854813
   226 OT DIIS     0.15E+00    0.4     0.00000250      -170.8095809801 -4.76E-08
  Decoupling Energy:                                               0.0275104104
  Recoupling Energy:                                              -0.0094854809
   227 OT DIIS     0.15E+00    0.4     0.00000236      -170.8095810953 -1.15E-07
  Decoupling Energy:                                               0.0275103596
  Recoupling Energy:                                              -0.0094854799
   228 OT DIIS     0.15E+00    0.4     0.00000228      -170.8095812489 -1.54E-07
  Decoupling Energy:                                               0.0275103587
  Recoupling Energy:                                              -0.0094854799
   229 OT DIIS     0.15E+00    0.4     0.00000228      -170.8095812567 -7.79E-09
  Decoupling Energy:                                               0.0275103367
  Recoupling Energy:                                              -0.0094854795
   230 OT DIIS     0.15E+00    0.4     0.00000219      -170.8095813449 -8.82E-08
  Decoupling Energy:                                               0.0275103289
  Recoupling Energy:                                              -0.0094854794
   231 OT DIIS     0.15E+00    0.4     0.00000217      -170.8095813990 -5.41E-08
  Decoupling Energy:                                               0.0275103177
  Recoupling Energy:                                              -0.0094854791
   232 OT DIIS     0.15E+00    0.4     0.00000215      -170.8095814675 -6.85E-08
  Decoupling Energy:                                               0.0275102936
  Recoupling Energy:                                              -0.0094854787
   233 OT DIIS     0.15E+00    0.4     0.00000212      -170.8095816213 -1.54E-07
  Decoupling Energy:                                               0.0275102880
  Recoupling Energy:                                              -0.0094854785
   234 OT DIIS     0.15E+00    0.4     0.00000213      -170.8095816623 -4.10E-08
  Decoupling Energy:                                               0.0275102812
  Recoupling Energy:                                              -0.0094854784
   235 OT DIIS     0.15E+00    0.4     0.00000206      -170.8095817551 -9.29E-08
  Decoupling Energy:                                               0.0275102698
  Recoupling Energy:                                              -0.0094854781
   236 OT DIIS     0.15E+00    0.4     0.00000201      -170.8095818620 -1.07E-07
  Decoupling Energy:                                               0.0275102742
  Recoupling Energy:                                              -0.0094854782
   237 OT DIIS     0.15E+00    0.4     0.00000205      -170.8095818848 -2.28E-08
  Decoupling Energy:                                               0.0275102653
  Recoupling Energy:                                              -0.0094854780
   238 OT DIIS     0.15E+00    0.4     0.00000198      -170.8095819914 -1.07E-07
  Decoupling Energy:                                               0.0275102643
  Recoupling Energy:                                              -0.0094854779
   239 OT DIIS     0.15E+00    0.4     0.00000198      -170.8095820720 -8.07E-08
  Decoupling Energy:                                               0.0275102650
  Recoupling Energy:                                              -0.0094854779
   240 OT DIIS     0.15E+00    0.4     0.00000193      -170.8095821561 -8.40E-08
  Decoupling Energy:                                               0.0275102669
  Recoupling Energy:                                              -0.0094854779
   241 OT DIIS     0.15E+00    0.4     0.00000189      -170.8095822889 -1.33E-07
  Decoupling Energy:                                               0.0275102655
  Recoupling Energy:                                              -0.0094854778
   242 OT DIIS     0.15E+00    0.4     0.00000189      -170.8095823345 -4.56E-08
  Decoupling Energy:                                               0.0275102726
  Recoupling Energy:                                              -0.0094854779
   243 OT DIIS     0.15E+00    0.4     0.00000185      -170.8095824124 -7.79E-08
  Decoupling Energy:                                               0.0275102800
  Recoupling Energy:                                              -0.0094854780
   244 OT DIIS     0.15E+00    0.4     0.00000181      -170.8095825264 -1.14E-07
  Decoupling Energy:                                               0.0275102915
  Recoupling Energy:                                              -0.0094854782
   245 OT DIIS     0.15E+00    0.4     0.00000188      -170.8095825802 -5.39E-08
  Decoupling Energy:                                               0.0275102974
  Recoupling Energy:                                              -0.0094854782
   246 OT DIIS     0.15E+00    0.4     0.00000178      -170.8095826958 -1.16E-07
  Decoupling Energy:                                               0.0275103063
  Recoupling Energy:                                              -0.0094854783
   247 OT DIIS     0.15E+00    0.4     0.00000177      -170.8095827798 -8.39E-08
  Decoupling Energy:                                               0.0275103190
  Recoupling Energy:                                              -0.0094854785
   248 OT DIIS     0.15E+00    0.4     0.00000170      -170.8095828462 -6.64E-08
  Decoupling Energy:                                               0.0275103368
  Recoupling Energy:                                              -0.0094854788
   249 OT DIIS     0.15E+00    0.4     0.00000167      -170.8095829561 -1.10E-07
  Decoupling Energy:                                               0.0275103444
  Recoupling Energy:                                              -0.0094854789
   250 OT DIIS     0.15E+00    0.4     0.00000169      -170.8095830047 -4.86E-08
  Decoupling Energy:                                               0.0275103639
  Recoupling Energy:                                              -0.0094854792
   251 OT DIIS     0.15E+00    0.4     0.00000165      -170.8095830914 -8.67E-08
  Decoupling Energy:                                               0.0275103903
  Recoupling Energy:                                              -0.0094854796
   252 OT DIIS     0.15E+00    0.4     0.00000160      -170.8095832123 -1.21E-07
  Decoupling Energy:                                               0.0275104124
  Recoupling Energy:                                              -0.0094854800
   253 OT DIIS     0.15E+00    0.4     0.00000165      -170.8095832773 -6.50E-08
  Decoupling Energy:                                               0.0275104289
  Recoupling Energy:                                              -0.0094854802
   254 OT DIIS     0.15E+00    0.4     0.00000155      -170.8095833580 -8.07E-08
  Decoupling Energy:                                               0.0275104474
  Recoupling Energy:                                              -0.0094854805
   255 OT DIIS     0.15E+00    0.4     0.00000154      -170.8095834265 -6.86E-08
  Decoupling Energy:                                               0.0275104670
  Recoupling Energy:                                              -0.0094854809
   256 OT DIIS     0.15E+00    0.4     0.00000149      -170.8095834776 -5.10E-08
  Decoupling Energy:                                               0.0275105011
  Recoupling Energy:                                              -0.0094854814
   257 OT DIIS     0.15E+00    0.4     0.00000146      -170.8095835798 -1.02E-07
  Decoupling Energy:                                               0.0275105157
  Recoupling Energy:                                              -0.0094854816
   258 OT DIIS     0.15E+00    0.4     0.00000148      -170.8095836268 -4.70E-08
  Decoupling Energy:                                               0.0275105413
  Recoupling Energy:                                              -0.0094854820
   259 OT DIIS     0.15E+00    0.4     0.00000142      -170.8095836905 -6.37E-08
  Decoupling Energy:                                               0.0275105690
  Recoupling Energy:                                              -0.0094854825
   260 OT DIIS     0.15E+00    0.4     0.00000137      -170.8095837600 -6.94E-08
  Decoupling Energy:                                               0.0275105895
  Recoupling Energy:                                              -0.0094854828
   261 OT DIIS     0.15E+00    0.4     0.00000139      -170.8095838008 -4.08E-08
  Decoupling Energy:                                               0.0275106036
  Recoupling Energy:                                              -0.0094854830
   262 OT DIIS     0.15E+00    0.4     0.00000134      -170.8095838384 -3.76E-08
  Decoupling Energy:                                               0.0275106216
  Recoupling Energy:                                              -0.0094854833
   263 OT DIIS     0.15E+00    0.4     0.00000134      -170.8095838827 -4.44E-08
  Decoupling Energy:                                               0.0275106393
  Recoupling Energy:                                              -0.0094854836
   264 OT DIIS     0.15E+00    0.4     0.00000131      -170.8095839131 -3.04E-08
  Decoupling Energy:                                               0.0275106664
  Recoupling Energy:                                              -0.0094854840
   265 OT DIIS     0.15E+00    0.4     0.00000128      -170.8095839706 -5.75E-08
  Decoupling Energy:                                               0.0275106761
  Recoupling Energy:                                              -0.0094854842
   266 OT DIIS     0.15E+00    0.4     0.00000128      -170.8095839943 -2.37E-08
  Decoupling Energy:                                               0.0275106875
  Recoupling Energy:                                              -0.0094854844
   267 OT DIIS     0.15E+00    0.4     0.00000125      -170.8095840157 -2.14E-08
  Decoupling Energy:                                               0.0275106996
  Recoupling Energy:                                              -0.0094854845
   268 OT DIIS     0.15E+00    0.4     0.00000123      -170.8095840423 -2.66E-08
  Decoupling Energy:                                               0.0275107101
  Recoupling Energy:                                              -0.0094854847
   269 OT DIIS     0.15E+00    0.4     0.00000124      -170.8095840654 -2.31E-08
  Decoupling Energy:                                               0.0275107177
  Recoupling Energy:                                              -0.0094854848
   270 OT DIIS     0.15E+00    0.4     0.00000122      -170.8095840855 -2.02E-08
  Decoupling Energy:                                               0.0275107258
  Recoupling Energy:                                              -0.0094854849
   271 OT DIIS     0.15E+00    0.4     0.00000122      -170.8095841116 -2.61E-08
  Decoupling Energy:                                               0.0275107358
  Recoupling Energy:                                              -0.0094854851
   272 OT DIIS     0.15E+00    0.4     0.00000119      -170.8095841291 -1.75E-08
  Decoupling Energy:                                               0.0275107452
  Recoupling Energy:                                              -0.0094854852
   273 OT DIIS     0.15E+00    0.4     0.00000117      -170.8095841574 -2.83E-08
  Decoupling Energy:                                               0.0275107479
  Recoupling Energy:                                              -0.0094854853
   274 OT DIIS     0.15E+00    0.4     0.00000117      -170.8095841709 -1.35E-08
  Decoupling Energy:                                               0.0275107521
  Recoupling Energy:                                              -0.0094854853
   275 OT DIIS     0.15E+00    0.4     0.00000116      -170.8095841842 -1.33E-08
  Decoupling Energy:                                               0.0275107562
  Recoupling Energy:                                              -0.0094854854
   276 OT DIIS     0.15E+00    0.4     0.00000115      -170.8095842050 -2.08E-08
  Decoupling Energy:                                               0.0275107602
  Recoupling Energy:                                              -0.0094854854
   277 OT DIIS     0.15E+00    0.4     0.00000116      -170.8095842313 -2.63E-08
  Decoupling Energy:                                               0.0275107626
  Recoupling Energy:                                              -0.0094854854
   278 OT DIIS     0.15E+00    0.4     0.00000114      -170.8095842496 -1.83E-08
[...]
 flops    25 x    32 x     5             28768000       0.0%    100.0%      0.0%
 flops    15 x    15 x     5             30924000       0.0%    100.0%      0.0%
 flops    25 x    15 x    18             36409500       0.0%    100.0%      0.0%
 flops    13 x    32 x    32             38338560       0.0%    100.0%      0.0%
 flops    15 x    15 x    15             45771750       0.0%    100.0%      0.0%
 flops    25 x    15 x    15             47418750       0.0%    100.0%      0.0%
 flops     5 x     5 x    15             48411000       0.0%    100.0%      0.0%
 flops    36 x    15 x     5             58255200       0.0%    100.0%      0.0%
 flops    32 x    15 x     5             65203200       0.0%    100.0%      0.0%
 flops    15 x    32 x     5             65971200       0.0%    100.0%      0.0%
 flops    25 x    32 x    18             77673600       0.0%    100.0%      0.0%
 flops    15 x    15 x    18             83494800       0.0%    100.0%      0.0%
 flops    39 x    15 x     5             84146400       0.0%    100.0%      0.0%
 flops    15 x    15 x    32             97646400       0.0%    100.0%      0.0%
 flops    15 x    32 x    15             97646400       0.0%    100.0%      0.0%
 flops    32 x    15 x    15             97646400       0.0%    100.0%      0.0%
 flops    25 x    15 x    32            101160000       0.0%    100.0%      0.0%
 flops    25 x    32 x    15            101160000       0.0%    100.0%      0.0%
 flops     5 x     5 x    32            103276800       0.0%    100.0%      0.0%
 flops    36 x    32 x     5            124277760       0.0%    100.0%      0.0%
 flops    25 x    15 x    13            131478750       0.0%    100.0%      0.0%
 flops    32 x    32 x     5            140738560       0.0%    100.0%      0.0%
 flops    36 x    15 x    18            157289040       0.0%    100.0%      0.0%
 flops    32 x    15 x    18            176048640       0.0%    100.0%      0.0%
 flops    15 x    32 x    18            178122240       0.0%    100.0%      0.0%
 flops    39 x    32 x     5            179512320       0.0%    100.0%      0.0%
 flops     5 x    15 x     5            187398750       0.0%    100.0%      0.0%
 flops    13 x     5 x    15            188802900       0.0%    100.0%      0.0%
 flops     5 x    13 x    15            188802900       0.0%    100.0%      0.0%
 flops    36 x    15 x    15            204849000       0.0%    100.0%      0.0%
 flops    32 x    32 x    15            208312320       0.0%    100.0%      0.0%
 flops    15 x    32 x    32            208312320       0.0%    100.0%      0.0%
 flops    32 x    15 x    32            208312320       0.0%    100.0%      0.0%
 flops    25 x    32 x    32            215808000       0.0%    100.0%      0.0%
 flops    39 x    15 x    18            227195280       0.0%    100.0%      0.0%
 flops    25 x    32 x    13            280488000       0.0%    100.0%      0.0%
 flops    39 x    15 x    15            295893000       0.0%    100.0%      0.0%
 flops    15 x    15 x    13            301509000       0.0%    100.0%      0.0%
 flops    36 x    32 x    18            335549952       0.0%    100.0%      0.0%
 flops    32 x    32 x    18            379994112       0.0%    100.0%      0.0%
 flops     5 x    32 x     5            399784000       0.0%    100.0%      0.0%
 flops    13 x     5 x    32            402779520       0.0%    100.0%      0.0%
 flops     5 x    13 x    32            402779520       0.0%    100.0%      0.0%
 flops    36 x    15 x    32            437011200       0.0%    100.0%      0.0%
 flops    36 x    32 x    15            437011200       0.0%    100.0%      0.0%
 flops    32 x    32 x    32            444399616       0.0%    100.0%      0.0%
 flops    39 x    32 x    18            484683264       0.0%    100.0%      0.0%
 flops    36 x    15 x    13            567988200       0.0%    100.0%      0.0%
 flops    39 x    32 x    15            631238400       0.0%    100.0%      0.0%
 flops    39 x    15 x    32            631238400       0.0%    100.0%      0.0%
 flops    32 x    15 x    13            635731200       0.0%    100.0%      0.0%
 flops    15 x    32 x    13            643219200       0.0%    100.0%      0.0%
 flops     5 x    15 x    13            797296500       0.0%    100.0%      0.0%
 flops    13 x    15 x     5            797296500       0.0%    100.0%      0.0%
 flops    39 x    15 x    13            820427400       0.0%    100.0%      0.0%
 flops    13 x    13 x    15            847896660       0.0%    100.0%      0.0%
 flops    36 x    32 x    32            932290560       0.0%    100.0%      0.0%
 flops    36 x    32 x    13           1211708160       0.0%    100.0%      0.0%
 flops    39 x    32 x    32           1346641920       0.0%    100.0%      0.0%
 flops    32 x    32 x    13           1372200960       0.0%    100.0%      0.0%
 flops    13 x    32 x     5           1700899200       0.0%    100.0%      0.0%
 flops     5 x    32 x    13           1700899200       0.0%    100.0%      0.0%
 flops    39 x    32 x    13           1750245120       0.0%    100.0%      0.0%
 flops    13 x    13 x    32           1808846208       0.0%    100.0%      0.0%
 flops    13 x    15 x    13           3392134200       0.0%    100.0%      0.0%
 flops    13 x    32 x    13           7236552960       0.0%    100.0%      0.0%
 flops inhomo. stacks                  1424306952     100.0%      0.0%      0.0%
 flops total                        39.140619E+09       3.6%     96.4%      0.0%
 flops max/rank                      5.506372E+09       6.1%     93.9%      0.0%
 matmuls inhomo. stacks                     56176     100.0%      0.0%      0.0%
 matmuls total                            5194390       1.1%     98.9%      0.0%
 number of processed stacks               2559974       2.2%     97.8%      0.0%
 average stack size                                     1.0       2.1       0.0
 marketing flops                    42.284610E+09
 -------------------------------------------------------------------------------
 # multiplications                          18494
 max memory usage/rank              32.317440E+06
 # max total images/rank                        3
 # max 3D layers                                1
 # MPI messages exchanged               326678016
 MPI messages size (bytes):
  total size                        93.018096E+09
  min size                           0.000000E+00
  max size                           9.984000E+03
  average size                     284.739380E+00
 MPI breakdown and total messages size (bytes):
             size <=      128           298068868                        0
       128 < size <=     8192            27760195              84810636816
      8192 < size <=    32768              848953               8196519936
     32768 < size <=   131072                   0                        0
    131072 < size <=  4194304                   0                        0
   4194304 < size <= 16777216                   0                        0
  16777216 < size                               0                        0
 -------------------------------------------------------------------------------

 *** WARNING in dbcsr/mm/dbcsr_mm.F:268 :: Using a non-square number of ***
 *** MPI ranks might lead to poor performance.                          ***
 *** Used ranks: 192                                                    ***
 *** Suggested: 196 400                                                 ***

 -------------------------------------------------------------------------------

 MEMORY| Estimated peak process memory [MiB]                                  31

 -------------------------------------------------------------------------------
 -                                                                             -
 -                         MESSAGE PASSING PERFORMANCE                         -
 -                                                                             -
 -------------------------------------------------------------------------------

 ROUTINE             CALLS      AVE VOLUME [Bytes]
 MP_Group              887
 MP_Bcast            32141                 656273.
 MP_Allreduce       186164                  38297.
 MP_Sync               438
 MP_Alltoall         80801                 439764.
 MP_ISendRecv       686454                  14580.
 MP_Wait           4746394
 MP_comm_split         393
 MP_ISend          3690142                   5475.
 MP_IRecv          3677572                   5446.
 MP_Recv              1334                   4624.
 MP_Memory         1391132
 -------------------------------------------------------------------------------


 -------------------------------------------------------------------------------
 -                                                                             -
 -                           R E F E R E N C E S                               -
 -                                                                             -
 -------------------------------------------------------------------------------
 
 CP2K version 6.1, the CP2K developers group (2018).
 CP2K is freely available from https://www.cp2k.org/ .

 Schuett, Ole; Messmer, Peter; Hutter, Juerg; VandeVondele, Joost. 
 Electronic Structure Calculations on Graphics Processing Units, John Wiley & Sons, Ltd, 173-190 (2016). 
 GPU-Accelerated Sparse Matrix-Matrix Multiplication for Linear Scaling Density Functional Theory.
 http://dx.doi.org/10.1002/9781118670712.ch8


 Borstnik, U; VandeVondele, J; Weber, V; Hutter, J. 
 PARALLEL COMPUTING, 40 (5-6), 47-58 (2014). 
 Sparse matrix multiplication: The distributed block-compressed sparse
 row library.
 http://dx.doi.org/10.1016/j.parco.2014.03.012


 Hutter, J; Iannuzzi, M; Schiffmann, F; VandeVondele, J. 
 WILEY INTERDISCIPLINARY REVIEWS-COMPUTATIONAL MOLECULAR SCIENCE, 4 (1), 15-25 (2014). 
 CP2K: atomistic simulations of condensed matter systems.
 http://dx.doi.org/10.1002/wcms.1159


 VandeVondele, J; Hutter, J. 
 JOURNAL OF CHEMICAL PHYSICS, 127 (11), 114105 (2007). 
 Gaussian basis sets for accurate calculations on molecular systems in
 gas and condensed phases.
 http://dx.doi.org/10.1063/1.2770708


 Laino, T; Mohamed, F; Laio, A; Parrinello, M. 
 JOURNAL OF CHEMICAL THEORY AND COMPUTATION, 2 (5), 1370-1378 (2006). 
 An efficient linear-scaling electrostatic coupling for treating
 periodic boundary conditions in QM/MM simulations.
 http://dx.doi.org/10.1021/ct6001169


 Laino, T; Mohamed, F; Laio, A; Parrinello, M. 
 JOURNAL OF CHEMICAL THEORY AND COMPUTATION, 1 (6), 1176-1184 (2005). 
 An efficient real space multigrid QM/MM electrostatic coupling.
 http://dx.doi.org/10.1021/ct050123f


 Krack, M. 
 THEORETICAL CHEMISTRY ACCOUNTS, 114 (1-3), 145-152 (2005). 
 Pseudopotentials for H to Kr optimized for gradient-corrected
 exchange-correlation functionals.
 http://dx.doi.org/10.1007/s00214-005-0655-y


 VandeVondele, J; Krack, M; Mohamed, F; Parrinello, M; Chassaing, T;
 Hutter, J. COMPUTER PHYSICS COMMUNICATIONS, 167 (2), 103-128 (2005). 
 QUICKSTEP: Fast and accurate density functional calculations using a
 mixed Gaussian and plane waves approach.
 http://dx.doi.org/10.1016/j.cpc.2004.12.014


 Frigo, M; Johnson, SG. 
 PROCEEDINGS OF THE IEEE, 93 (2), 216-231 (2005). 
 The design and implementation of FFTW3.
 http://dx.doi.org/10.1109/JPROC.2004.840301


 Kolafa, J. 
 JOURNAL OF COMPUTATIONAL CHEMISTRY, 25 (3), 335-342 (2004). 
 Time-reversible always stable predictor-corrector method for molecular dynamics of polarizable molecules.
 http://dx.doi.org/10.1002/jcc.10385


 VandeVondele, J; Hutter, J. 
 JOURNAL OF CHEMICAL PHYSICS, 118 (10), 4365-4369 (2003). 
 An efficient orbital transformation method for electronic structure
 calculations.
 http://dx.doi.org/10.1063/1.1543154


 Hartwigsen, C; Goedecker, S; Hutter, J. 
 PHYSICAL REVIEW B, 58 (7), 3641-3662 (1998). 
 Relativistic separable dual-space Gaussian pseudopotentials from H to Rn.
 http://dx.doi.org/10.1103/PhysRevB.58.3641


 Lippert, G; Hutter, J; Parrinello, M. 
 MOLECULAR PHYSICS, 92 (3), 477-487 (1997). 
 A hybrid Gaussian and plane wave density functional scheme.
 http://dx.doi.org/10.1080/002689797170220


 Perdew, JP; Burke, K; Ernzerhof, M. 
 PHYSICAL REVIEW LETTERS, 77 (18), 3865-3868 (1996). 
 Generalized gradient approximation made simple.
 http://dx.doi.org/10.1103/PhysRevLett.77.3865


 Goedecker, S; Teter, M; Hutter, J. 
 PHYSICAL REVIEW B, 54 (3), 1703-1710 (1996). 
 Separable dual-space Gaussian pseudopotentials.
 http://dx.doi.org/10.1103/PhysRevB.54.1703


 ESSMANN, U; PERERA, L; BERKOWITZ, ML; DARDEN, T; LEE, H; PEDERSEN, LG. 
 JOURNAL OF CHEMICAL PHYSICS, 103 (19), 8577-8593 (1995). 
 A SMOOTH PARTICLE MESH EWALD METHOD.
 http://dx.doi.org/10.1063/1.470117


 BLOCHL, PE. 
 JOURNAL OF CHEMICAL PHYSICS, 103 (17), 7422-7428 (1995). 
 ELECTROSTATIC DECOUPLING OF PERIODIC IMAGES OF PLANE-WAVE-EXPANDED
 DENSITIES AND DERIVED ATOMIC POINT CHARGES.
 http://dx.doi.org/10.1063/1.470314


 BYRD, RH; LU, PH; NOCEDAL, J; ZHU, CY. 
 SIAM JOURNAL ON SCIENTIFIC COMPUTING, 16 (5), 1190-1208 (1995). 
 A LIMITED MEMORY ALGORITHM FOR BOUND CONSTRAINED OPTIMIZATION.
 http://dx.doi.org/10.1137/0916069


 -------------------------------------------------------------------------------
 -                                                                             -
 -                                T I M I N G                                  -
 -                                                                             -
 -------------------------------------------------------------------------------
 SUBROUTINE                       CALLS  ASD         SELF TIME        TOTAL TIME
                                MAXIMUM       AVERAGE  MAXIMUM  AVERAGE  MAXIMUM
 CP2K                                 1  1.0    0.079    0.106  597.421  597.424
 cp_geo_opt                           1  2.0    0.003    0.004  585.727  585.728
 geoopt_lbfgs                         1  3.0    0.000    0.003  585.724  585.724
 cp_opt_gopt_step                    34  4.0    0.094    0.354  578.067  578.069
 cp_eval_at                          40  5.0    0.225    0.246  570.109  570.119
 qs_forces                           39  6.0    0.005    0.006  365.243  365.253
 qs_energies                         40  7.0    0.002    0.002  357.849  357.858
 scf_env_do_scf                      40  8.0    0.002    0.003  349.628  349.628
 scf_env_do_scf_inner_loop          859  9.0    0.022    0.058  338.177  338.268
 rebuild_ks_matrix                  898 10.8    0.002    0.002  210.302  210.509
 qs_ks_build_kohn_sham_matrix       898 11.8    0.083    0.090  210.300  210.506
 qs_ks_update_qs_env                899 10.0    0.008    0.008  199.746  199.944
 pw_transfer                      18405 14.5    0.836    1.022  121.038  123.806
 fft_wrap_pw1pw2                  15511 15.6    0.093    0.112  119.410  122.135
 fft_wrap_pw1pw2_150               9960 16.7    4.028    4.902  114.151  117.005
 rs_pw_transfer                    7427 14.3    0.068    0.095  108.745  114.337
 fft3d_ps                         15511 17.6   23.585   36.802  109.388  112.387
 qmmm_forces                         40  6.0    0.098    0.109  111.243  111.252
 qmmm_forces_with_gaussian           39  7.0    0.069    0.089  108.739  109.922
 sum_up_and_integrate               898 12.8    0.168    0.236   98.423   98.488
 integrate_v_rspace                 898 13.8    4.672   40.074   98.254   98.332
 qs_rho_update_rho                  899 10.0    0.004    0.005   96.710   96.721
 calculate_rho_elec                 899 11.0    4.696   40.915   96.706   96.717
 qs_vxc_create                      898 12.8    0.010    0.014   94.162   94.179
 xc_vxc_pw_create                   898 13.8    0.713    1.020   94.152   94.168
 density_rs2pw                      899 12.0    0.040    0.051   85.738   90.538
 qmmm_el_coupling                    40  6.0    0.001    0.001   83.922   84.858
 qmmm_elec_with_gaussian             40  7.0    0.025    0.031   83.914   84.851
 mp_alltoall_z22v                 15511 19.6   78.913   84.126   78.913   84.126
 pw_restrict_s3                     117  8.0   54.148   54.716   76.123   77.268
 qmmm_elec_with_gaussian:spline      40  8.0    0.000    0.000   61.584   62.536
 pw_prolongate_s3                   120  9.0   43.946   44.470   61.583   62.535
 potential_pw2rs                    898 14.8    0.044    0.053   57.434   58.426
 mp_waitany                      194346 16.2   46.264   57.243   46.264   57.243
 yz_to_x                           7268 18.0    1.852    2.138   50.470   54.548
 xc_rho_set_and_dset_create         898 14.8    0.419    0.458   40.288   52.049
 qs_scf_new_mos                     859 10.0    0.004    0.004   51.090   51.139
 qs_scf_loop_do_ot                  859 11.0    0.004    0.005   51.086   51.135
 ot_scf_mini                        859 12.0    0.023    0.024   48.843   48.876
 dbcsr_multiply_generic           18494 15.0    0.703    0.750   46.920   47.593
 rs_pw_transfer_RS2PW_150           939 13.9    9.971   12.571   39.697   45.515
 mp_alltoall_d11v                 13714 16.5   38.056   42.804   38.056   42.804
 rs_distribute_matrix              1836 13.4    0.057    0.223   36.694   41.402
 x_to_yz                           8243 19.1    4.848    6.526   35.142   36.231
 mp_waitall_1                   4553929 17.9   28.848   35.055   28.848   35.055
 ot_mini                            859 13.0    0.004    0.005   31.808   31.871
 qs_ot_get_derivative               859 14.0    0.006    0.006   28.820   28.854
 multiply_cannon                  18494 16.0    4.444    4.594   26.264   28.072
 qmmm_force_with_gaussian_low        39  8.0    0.000    0.000   24.955   25.098
 qmmm_forces_gaussian_low_R          39  9.0    0.000    0.000   24.486   24.597
 qmmm_forces_with_gaussian_LG        39 10.0   24.486   24.597   24.486   24.597
 rs_pw_transfer_PW2RS_150           937 16.6   12.438   13.009   20.767   21.752
 xc_functional_eval                 898 15.8    0.006    0.015   11.008   21.303
 pbe_lda_eval                       898 16.8   11.002   21.299   11.002   21.299
 rs_pw_transfer_PW2RS_10           1916 16.4    2.036    2.101   14.224   17.681
 rs_pw_transfer_RS2PW_40            899 14.0    3.272    4.237   11.392   17.563
 pw_zero                          14227  9.6   16.963   17.552   16.963   17.552
 pw_axpy                          15117 11.4   13.967   14.680   13.967   14.680
 mp_sum_dm3                         202  7.9   14.251   14.358   14.251   14.358
 rs_pw_transfer_PW2RS_40            898 16.8    2.738    3.766   10.357   14.134
 rs_pw_transfer_RS2PW_10           1838 13.9    1.079    1.155   12.239   13.874
 make_m2s                         36988 16.0    0.625    0.728   12.837   13.326
 qmmm_elec_with_gaussian_low         40  8.0    0.000    0.000   12.983   13.298
 write_restart                       35  5.0    0.032    5.925    6.992   12.966
 qmmm_elec_gaussian_low_R            40  9.0    0.000    0.000   12.471   12.770
 qmmm_elec_with_gaussian_LG          40 10.0   12.471   12.770   12.471   12.770
 -------------------------------------------------------------------------------

 The number of warnings for this run is : 1
 
 -------------------------------------------------------------------------------
  **** **** ******  **  PROGRAM ENDED AT                 2019-06-19 01:11:53.391
 ***** ** ***  *** **   PROGRAM RAN ON                                  nid00234
 **    ****   ******    PROGRAM RAN BY                                    vamodi
 ***** **    ** ** **   PROGRAM PROCESS ID                                  6656
  **** **  *******  **  PROGRAM STOPPED IN /wrk/vamodi/BioExcel-2/Summer_school-
                                           2019/neb/gfp-pt/QMMM/final
Application 8682758 resources: utime ~112754s, stime ~1806s, Rss ~32932, inblocks ~1550813, outblocks ~2271383
