       8
 i =       0, E =      -14.9518387696
  C         6.7708478529        5.9997771141        5.9994037461
  C         5.2291596387        6.0001909197        6.0007057354
  H         4.8183357647        5.5195272508        6.8979717513
  H         4.8192678337        5.4615400679        5.1340631349
  H         4.8186155141        7.0178722406        5.9657359198
  H         7.1814655792        5.5205659633        5.1018044389
  H         7.1809603949        7.0188054720        6.0335466347
  H         7.1812656434        5.4620699170        6.8655735296
       8
 i =       1, E =      -14.9518368071
  C         6.7708555094        6.0003599161        6.0004531060
  C         5.2291392384        5.9996818297        5.9995084659
  H         4.8182802296        5.5179513239        6.8971397145
  H         4.8194634476        5.4635669977        5.1339354314
  H         4.8185745208        7.0178649537        5.9676957936
  H         7.1815939272        5.5187902746        5.1024731700
  H         7.1808492990        7.0182483907        6.0316476898
  H         7.1811645395        5.4639192628        6.8659552698
       8
 i =       2, E =      -14.9518324950
  C         6.7703838631        6.0000870444        5.9998829415
  C         5.2296042360        5.9999837223        6.0000735196
  H         4.8182881156        5.5163626391        6.8958342567
  H         4.8192318803        5.4650938232        5.1326447779
  H         4.8185182151        7.0176911118        5.9697640580
  H         7.1815749607        5.5172171236        5.1038840354
  H         7.1810040655        7.0184031509        6.0296630669
  H         7.1813197997        5.4656074964        6.8670628381
       8
 i =       3, E =      -14.9518302940
  C         6.7707988156        6.0003468912        6.0003394774
  C         5.2291874136        5.9997779311        5.9995558924
  H         4.8182497233        5.5150479908        6.8953338410
  H         4.8192731709        5.4663860814        5.1320671727
  H         4.8184667120        7.0179212518        5.9712625208
  H         7.1816609488        5.5157942633        5.1043079059
  H         7.1809891028        7.0184042007        6.0282137551
  H         7.1813010811        5.4668460175        6.8677284023
       8
 i =       4, E =      -14.9518300070
  C         6.7706717232        6.0001610185        5.9999209415
  C         5.2293129333        6.0000060331        5.9999556600
  H         4.8182603197        5.5147910942        6.8952784295
  H         4.8191100889        5.4662922815        5.1314554428
  H         4.8184259495        7.0181272115        5.9715530287
  H         7.1816497325        5.5155515520        5.1044431156
  H         7.1810953909        7.0188498558        6.0279840342
  H         7.1814011646        5.4668686218        6.8682138645
       8
 i =       5, E =      -14.9518297642
  C         6.7709607906        6.0004199047        6.0003771944
  C         5.2290230995        5.9998017157        5.9994553450
  H         4.8182655594        5.5145813259        6.8953201531
  H         4.8192096241        5.4665885537        5.1315813092
  H         4.8184225731        7.0182622939        5.9718026006
  H         7.1816958326        5.5152484740        5.1043181725
  H         7.1810277261        7.0187515530        6.0277629117
  H         7.1813221641        5.4671021609        6.8681830975
       8
 i =       6, E =      -14.9518290660
  C         6.7707768563        6.0001839142        5.9998583937
  C         5.2292066158        6.0000767501        5.9999646725
  H         4.8183223513        5.5144204658        6.8950836876
  H         4.8190857619        5.4665868624        5.1310980367
  H         4.8184322494        7.0182508698        5.9720651277
  H         7.1816317025        5.5151368525        5.1046530698
  H         7.1810938848        7.0190229492        6.0275381326
  H         7.1813780019        5.4672187725        6.8685326424
       8
 i =       7, E =      -14.9518294269
  C         6.7708496948        6.0003068850        6.0000824562
  C         5.2291336294        5.9999739739        5.9997274825
  H         4.8183174826        5.5143375432        6.8951066941
  H         4.8191344264        5.4667285148        5.1311849998
  H         4.8184270801        7.0183008004        5.9721570568
  H         7.1816596268        5.5150152878        5.1045874077
  H         7.1810636131        7.0189558776        6.0274504482
  H         7.1813418390        5.4673244581        6.8684952428
       8
 i =       8, E =      -14.9518277899
  C         6.7710354877        6.0005757784        6.0004855388
  C         5.2289471071        5.9998223333        5.9992613223
  H         4.8183606383        5.5138647156        6.8949404115
  H         4.8192322116        5.4673389366        5.1311203360
  H         4.8184293071        7.0184424951        5.9727678558
  H         7.1816992060        5.5144465395        5.1046782940
  H         7.1809896253        7.0188925545        6.0268794031
  H         7.1812336153        5.4678931943        6.8686411516
       8
 i =       9, E =      -14.9518281612
  C         6.7708701878        6.0003635065        6.0000405872
  C         5.2291125191        6.0000517244        5.9997170601
  H         4.8183974991        5.5138001778        6.8947579421
  H         4.8191345704        5.4673029898        5.1307840184
  H         4.8184399796        7.0183865216        5.9728887037
  H         7.1816455433        5.5144435900        5.1049430777
  H         7.1810441429        7.0190735474        6.0267663335
  H         7.1812827535        5.4679441881        6.8688711135
       8
 i =      10, E =      -14.9518261448
  C         6.7709696393        6.0007010333        6.0005953112
  C         5.2290128180        5.9998206505        5.9991170916
  H         4.8183945831        5.5133235750        6.8946670437
  H         4.8192538371        5.4679694377        5.1308288508
  H         4.8184162072        7.0185555670        5.9734421170
  H         7.1817302584        5.5138763378        5.1049269084
  H         7.1809729841        7.0189508571        6.0262160088
  H         7.1811770272        5.4685223678        6.8689540945
       8
 i =      11, E =      -14.9518269689
  C         6.7708736576        6.0004123451        5.9999924080
  C         5.2291090532        6.0001301134        5.9997352995
  H         4.8184516854        5.5132896108        6.8944245233
  H         4.8191356200        5.4678909367        5.1304243250
  H         4.8184454368        7.0184458970        5.9735509160
  H         7.1816427350        5.5139298430        5.1052824965
  H         7.1810332393        7.0191609601        6.0261135641
  H         7.1812361735        5.4685574914        6.8692174195
       8
 i =      12, E =      -14.9518267555
  C         6.7708745901        6.0004575852        6.0000458362
  C         5.2291081407        6.0001179945        5.9996733485
  H         4.8184566155        5.5131505954        6.8943625784
  H         4.8191464193        5.4680621586        5.1303659964
  H         4.8184409115        7.0184791434        5.9737206331
  H         7.1816539990        5.5137814295        5.1053331896
  H         7.1810266096        7.0191666229        6.0259440126
  H         7.1812205939        5.4687226688        6.8692874294
       8
 i =      13, E =      -14.9518251867
  C         6.7709311779        6.0007411808        6.0004943712
  C         5.2290515789        5.9999422012        5.9991908773
  H         4.8184415953        5.5126954072        6.8942606237
  H         4.8192341354        5.4686848259        5.1303476882
  H         4.8184104244        7.0186423986        5.9742443622
  H         7.1817321421        5.5132595954        5.1053465964
  H         7.1809802628        7.0190940666        6.0254127398
  H         7.1811480923        5.4692718987        6.8694087315
       8
 i =      14, E =      -14.9518257776
  C         6.7709016482        6.0006074413        6.0002087043
  C         5.2290812334        6.0000912626        5.9994837225
  H         4.8184699132        5.5126726175        6.8941360738
  H         4.8191799896        5.4686626935        5.1301535198
  H         4.8184261079        7.0185874989        5.9743074802
  H         7.1816888949        5.5132789108        5.1055244435
  H         7.1810068727        7.0191906246        6.0253516955
  H         7.1811749019        5.4693033472        6.8695360758
       8
 i =      15, E =      -14.9518252541
  C         6.7708681406        6.0005212178        5.9999719623
  C         5.2291149395        6.0002348976        5.9997194918
  H         4.8184992939        5.5124937961        6.8939364059
  H         4.8191340863        5.4688380877        5.1298852193
  H         4.8184349659        7.0185706070        5.9745628970
  H         7.1816578690        5.5131356219        5.1057663591
  H         7.1810300439        7.0193003808        6.0250955819
  H         7.1811908677        5.4695264829        6.8697481852
       8
 i =      16, E =      -14.9518250650
  C         6.7708967001        6.0006645281        6.0002170712
  C         5.2290863835        6.0001304511        5.9994625541
  H         4.8184824393        5.5123418137        6.8939359550
  H         4.8191804304        5.4690685761        5.1299373545
  H         4.8184187122        7.0186455144        5.9747287326
  H         7.1816987756        5.5129480745        5.1057183823
  H         7.1810066659        7.0192466434        6.0249250612
  H         7.1811601221        5.4697149956        6.8697520522
       8
 i =      17, E =      -14.9518245527
  C         6.7708759897        6.0005628633        5.9999478619
  C         5.2291072711        6.0002910154        5.9997310764
  H         4.8185141259        5.5121790663        6.8937294224
  H         4.8191301011        5.4692265101        5.1296616161
  H         4.8184311338        7.0186177288        5.9749705061
  H         7.1816602059        5.5128265444        5.1059740016
  H         7.1810314574        7.0193625319        6.0246824587
  H         7.1811799625        5.4699260009        6.8699652711
       8
 i =      18, E =      -14.9518244160
  C         6.7708929567        6.0007142995        6.0002108935
  C         5.2290902329        6.0001774031        5.9994580253
  H         4.8184929823        5.5120323864        6.8937410099
  H         4.8191777644        5.4694524307        5.1297249647
  H         4.8184118189        7.0186996914        5.9751272598
  H         7.1817056129        5.5126412722        5.1059098418
  H         7.1810085721        7.0193067781        6.0245206473
  H         7.1811502104        5.4701070866        6.8699608389
       8
 i =      19, E =      -14.9518241052
  C         6.7708928793        6.0007283360        6.0001820821
  C         5.2290903528        6.0002152301        5.9994814082
  H         4.8185007219        5.5118750196        6.8936306193
  H         4.8191722459        5.4696459154        5.1296014496
  H         4.8184101868        7.0187215088        5.9753343690
  H         7.1817045757        5.5124892520        5.1060236250
  H         7.1810114163        7.0193452907        6.0243105972
  H         7.1811476279        5.4703093306        6.8700768444
       8
 i =      20, E =      -14.9518235580
  C         6.7708816557        6.0006552055        5.9999547849
  C         5.2291016393        6.0003619612        5.9997056221
  H         4.8185277267        5.5116858255        6.8934207004
  H         4.8191301484        5.4698521161        5.1293339334
  H         4.8184197567        7.0187086291        5.9756083911
  H         7.1816721974        5.5123359174        5.1062740141
  H         7.1810323078        7.0194542296        6.0240340751
  H         7.1811642615        5.4705617467        6.8702914159
       8
 i =      21, E =      -14.9518234621
  C         6.7708909753        6.0007803149        6.0001674386
  C         5.2290922113        6.0002721529        5.9994855997
  H         4.8185095142        5.5115617073        6.8934259738
  H         4.8191679111        5.4700440928        5.1293794881
  H         4.8184030180        7.0187787926        5.9757435342
  H         7.1817095899        5.5121804557        5.1062252542
  H         7.1810147175        7.0194130698        6.0238943847
  H         7.1811415763        5.4707179977        6.8702925807
       8
 i =      22, E =      -14.9518232777
  C         6.7708919136        6.0007918609        6.0001535974
  C         5.2290912401        6.0002946601        5.9994961388
  H         4.8185127830        5.5114703110        6.8933614152
  H         4.8191654234        5.4701611861        5.1293084375
  H         4.8184016414        7.0187935662        5.9758658640
  H         7.1817093739        5.5120918113        5.1062910357
  H         7.1810162220        7.0194363095        6.0237699152
  H         7.1811407310        5.4708397184        6.8703593635
       8
 i =      23, E =      -14.9518229260
  C         6.7708871326        6.0007619302        6.0000267851
  C         5.2290959805        6.0003857424        5.9996192278
  H         4.8185278521        5.5113220009        6.8932149398
  H         4.8191423365        5.4703368199        5.1291284199
  H         4.8184056734        7.0187964015        5.9760781825
  H         7.1816922909        5.5119638086        5.1064593168
  H         7.1810279980        7.0195079506        6.0235546980
  H         7.1811497531        5.4710419766        6.8705087229
       8
 i =      24, E =      -14.9518226167
  C         6.7708927413        6.0008718500        6.0001854538
  C         5.2290902497        6.0003328298        5.9994529511
  H         4.8185149772        5.5111558893        6.8931703358
  H         4.8191700827        5.4705789557        5.1291101199
  H         4.8183907679        7.0188656112        5.9762774234
  H         7.1817220735        5.5117748308        5.1064694880
  H         7.1810156435        7.0194949916        6.0233498874
  H         7.1811321292        5.4712595230        6.8705602792
       8
 i =       0, E =      -14.9518224785
  C         6.7709014800        6.0000413608        5.9998484223
  C         5.2290987505        5.9999911033        6.0001500817
  H         4.8189679771        5.5109323464        6.8941361993
  H         4.8184269774        5.4703788809        5.1300754050
  H         4.8187067217        7.0186543365        5.9772634895
  H         7.1809761913        5.5108261265        5.1058506328
  H         7.1813627204        7.0185341309        6.0227512127
  H         7.1815566658        5.4702873337        6.8699408875
       8
 i =       1, E =      -14.9518434208
  C         6.7708882102        5.9997060234        5.9991413530
  C         5.2291125450        6.0003610820        6.0008976974
  H         4.8190398774        5.5213383137        6.8998283779
  H         4.8183136262        5.4600087378        5.1356467952
  H         4.8187331870        7.0185717259        5.9654245236
  H         7.1808763759        5.5213454103        5.1002818164
  H         7.1814275306        7.0188023452        6.0345834759
  H         7.1816066001        5.4600403516        6.8642126998
       8
 i =       2, E =      -14.9518453478
  C         6.7710528303        6.0002729211        6.0001410087
  C         5.2289459621        5.9999292852        5.9998564387
  H         4.8189964316        5.5214958505        6.9001420818
  H         4.8185466960        5.4602029305        5.1364454622
  H         4.8187417835        7.0185981167        5.9652097584
  H         7.1809842334        5.5213603947        5.0997850991
  H         7.1812678425        7.0183009556        6.0347847750
  H         7.1814622287        5.4600436942        6.8636537602
       8
 i =       3, E =      -14.9518467157
  C         6.7708599186        5.9998526548        5.9993538516
  C         5.2291393055        6.0002885270        6.0006673873
  H         4.8190891677        5.5220705801        6.9000838609
  H         4.8184143942        5.4595489242        5.1363427722
  H         4.8187883815        7.0183917435        5.9646637553
  H         7.1808411572        5.5220464131        5.0999897642
  H         7.1813402280        7.0185079317        6.0353431341
  H         7.1815255604        5.4595357557        6.8635733320
       8
 i =       4, E =      -14.9518464202
  C         6.7709257163        6.0002287735        6.0000457114
  C         5.2290734093        5.9999793922        5.9999571007
  H         4.8190411853        5.5217874488        6.9001462112
  H         4.8185537672        5.4600118689        5.1366220960
  H         4.8187686527        7.0184900659        5.9649294964
  H         7.1809353758        5.5216634861        5.0997974099
  H         7.1812557903        7.0182424543        6.0350673608
  H         7.1814444079        5.4598702477        6.8634534337
       8
 i =       5, E =      -14.9518459826
  C         6.7708516316        5.9999352448        5.9994757403
  C         5.2291477587        6.0002481941        6.0005388979
  H         4.8191018380        5.5216492654        6.8998269396
  H         4.8184532051        5.4600595601        5.1362069212
  H         4.8187998244        7.0183707384        5.9651544542
  H         7.1808372354        5.5216066349        5.1002248802
  H         7.1813107619        7.0184211889        6.0348518425
  H         7.1814962524        5.4600219816        6.8637388987
       8
 i =       6, E =      -14.9518454994
  C         6.7708791910        6.0001894155        5.9999539316
  C         5.2291201399        6.0000317462        6.0000514346
  H         4.8190604849        5.5213744717        6.8998550878
  H         4.8185399609        5.4604331781        5.1363318416
  H         4.8187744982        7.0184763661        5.9654168716
  H         7.1809113059        5.5212622490        5.1001056571
  H         7.1812644808        7.0182766681        6.0345825485
  H         7.1814485839        5.4603082044        6.8637218997
       8
 i =       7, E =      -14.9518455084
  C         6.7708701787        6.0001111858        5.9997968789
  C         5.2291292240        6.0001078675        6.0002108740
  H         4.8190768612        5.5213115971        6.8997563746
  H         4.8185122283        5.4604694991        5.1362007724
  H         4.8187833449        7.0184461635        5.9655068866
  H         7.1808844610        5.5212218829        5.1002345582
  H         7.1812792694        7.0183283572        6.0344951681
  H         7.1814630710        5.4603727988        6.8638177496
       8
 i =       8, E =      -14.9518396403
  C         6.7708108317        5.9997830578        5.9990881765
  C         5.2291891239        6.0004825651        6.0009285720
  H         4.8191591933        5.5200606071        6.8987657582
  H         4.8183845824        5.4616217785        5.1350229040
  H         4.8188162130        7.0183658493        5.9670238348
  H         7.1807567033        5.5200703657        5.1013628290
  H         7.1813540202        7.0186184715        6.0329924553
  H         7.1815276454        5.4616515729        6.8648358775
       8
 i =       9, E =      -14.9518416281
  C         6.7708521710        6.0001342851        5.9997609253
  C         5.2291475048        6.0001721443        6.0002481535
  H         4.8190920717        5.5198596377        6.8989234616
  H         4.8185012033        5.4619464102        5.1352951951
  H         4.8187754259        7.0185239690        5.9671819119
  H         7.1808703057        5.5197709658        5.1010744445
  H         7.1812942602        7.0184253156        6.0328241266
  H         7.1814654881        5.4618553288        6.8647128933
       8
 i =      10, E =      -14.9518391469
  C         6.7709166139        6.0000860007        5.9995762586
  C         5.2290829593        6.0002976400        6.0004159850
  H         4.8190976737        5.5189836050        6.8983757266
  H         4.8184675798        5.4628277331        5.1346334918
  H         4.8187783936        7.0185600700        5.9682490455
  H         7.1808488923        5.5189244689        5.1016664134
  H         7.1813199540        7.0185510632        6.0317605730
  H         7.1814866225        5.4627609126        6.8653447053
       8
 i =      11, E =      -14.9518389558
  C         6.7708754706        6.0001823195        5.9997747029
  C         5.2291239769        6.0002108081        6.0002336958
  H         4.8190753469        5.5188350285        6.8983659170
  H         4.8184935386        5.4630154456        5.1346442043
  H         4.8187593152        7.0186219968        5.9684055008
  H         7.1808883497        5.5187439055        5.1016308527
  H         7.1813109051        7.0185153993        6.0316005882
  H         7.1814716168        5.4629196173        6.8653666090
       8
 i =      12, E =      -14.9518387320
  C         6.7708732428        6.0001788749        5.9997574598
  C         5.2291261935        6.0002241314        6.0002505782
  H         4.8190763519        5.5187505254        6.8983082734
  H         4.8184904183        5.4631063360        5.1345822367
  H         4.8187600057        7.0186234439        5.9685113888
  H         7.1808860713        5.5186619625        5.1016920068
  H         7.1813128678        7.0185254643        6.0314950419
  H         7.1814733279        5.4630131196        6.8654251729
       8
 i =      13, E =      -14.9518392322
  C         6.7708717171        6.0001818737        5.9997880235
  C         5.2291277125        6.0001982547        6.0002220067
  H         4.8190746305        5.5189402046        6.8984336053
  H         4.8184956119        5.4629006608        5.1347160944
  H         4.8187585620        7.0186176238        5.9682749539
  H         7.1808903377        5.5188469550        5.1015600558
  H         7.1813094770        7.0185050339        6.0317307822
  H         7.1814703877        5.4628033541        6.8652964233
       8
 i =      14, E =      -14.9518387211
  C         6.7708777715        6.0001513962        5.9996989473
  C         5.2291216286        6.0002514202        6.0003055781
  H         4.8190827454        5.5187575517        6.8982869236
  H         4.8184826091        5.4630918592        5.1345569429
  H         4.8187652253        7.0186052379        5.9685108314
  H         7.1808749304        5.5186783697        5.1017263081
  H         7.1813157538        7.0185365037        6.0314966373
  H         7.1814775456        5.4630074506        6.8654400649
       8
 i =      15, E =      -14.9518326693
  C         6.7708109985        6.0005562614        6.0003729887
  C         5.2291881553        6.0000228075        5.9996662912
  H         4.8189998811        5.5170704461        6.8975609716
  H         4.8185735827        5.4650374733        5.1338688883
  H         4.8186984732        7.0189058373        5.9704883772
  H         7.1810119778        5.5168840921        5.1023045380
  H         7.1812887691        7.0184957582        6.0295091132
  H         7.1814266047        5.4648445441        6.8662522927
       8
 i =      16, E =      -14.9518342908
  C         6.7708429943        6.0003693033        5.9999631550
  C         5.2291563297        6.0002241084        6.0000582115
  H         4.8190396210        5.5170612898        6.8973975368
  H         4.8185097605        5.4649877715        5.1336348110
  H         4.8187297303        7.0188100874        5.9705496650
  H         7.1809397115        5.5169385986        5.1025563513
  H         7.1813169793        7.0186061723        6.0294543247
  H         7.1814632858        5.4648589546        6.8664096793
       8
 i =      17, E =      -14.9518342626
  C         6.7708710988        6.0002576453        5.9997041473
  C         5.2291284240        6.0003561781        6.0003023597
  H         4.8190636347        5.5169841520        6.8972554574
  H         4.8184696467        5.4650363859        5.1334427233
  H         4.8187487472        7.0187595753        5.9706754985
  H         7.1808944528        5.5169020082        5.1027556424
  H         7.1813352932        7.0186846055        6.0293329153
  H         7.1814871026        5.4649466731        6.8665553142
       8
 i =      18, E =      -14.9518318321
  C         6.7708918156        6.0004862177        6.0000348426
  C         5.2291079790        6.0002642487        5.9999772764
  H         4.8190183923        5.5161083541        6.8968958619
  H         4.8185110877        5.4660575541        5.1330597076
  H         4.8187118435        7.0189598507        5.9717067759
  H         7.1809641056        5.5159739427        5.1030472782
  H         7.1813244217        7.0187126350        6.0282984205
  H         7.1814690941        5.4659106709        6.8670049676
       8
 i =      19, E =      -14.9518320574
  C         6.7708892987        6.0003429145        5.9997182696
  C         5.2291103429        6.0004285075        6.0002894497
  H         4.8190489077        5.5160568115        6.8967358550
  H         4.8184582217        5.4660746426        5.1328448542
  H         4.8187345644        7.0188895152        5.9718143453
  H         7.1809101172        5.5159704617        5.1032722020
  H         7.1813488601        7.0188052477        6.0281953479
  H         7.1814984781        5.4659805482        6.8671548574
       8
 i =      20, E =      -14.9518300487
  C         6.7708743268        6.0005197802        5.9999146143
  C         5.2291247013        6.0004090945        6.0000884867
  H         4.8190284995        5.5152619293        6.8963101275
  H         4.8184895996        5.4670671381        5.1324642458
  H         4.8187183374        7.0190170650        5.9728084268
  H         7.1809435844        5.5151456528        5.1036583431
  H         7.1813371683        7.0188255119        6.0271998124
  H         7.1814831493        5.4669347359        6.8675822961
       8
 i =      21, E =      -14.9518300573
  C         6.7708756744        6.0004574380        5.9997716046
  C         5.2291237092        6.0004892718        6.0002348133
  H         4.8190410945        5.5152118646        6.8962268356
  H         4.8184625215        5.4671008218        5.1323419502
  H         4.8187269385        7.0189953781        5.9728890209
  H         7.1809211234        5.5151166411        5.1037694133
  H         7.1813503453        7.0188790856        6.0271209998
  H         7.1814979933        5.4669942064        6.8676716860
       8
 i =      22, E =      -14.9518293458
  C         6.7708853593        6.0004339575        5.9996509257
  C         5.2291147710        6.0005860880        6.0003586891
  H         4.8190473561        5.5149291478        6.8960220543
  H         4.8184345532        5.4674100393        5.1320738735
  H         4.8187291886        7.0190233034        5.9732609068
  H         7.1809063277        5.5148510200        5.1039977740
  H         7.1813666778        7.0189696596        6.0267509571
  H         7.1815152154        5.4673243618        6.8679114178
       8
 i =      23, E =      -14.9518286456
  C         6.7708905461        6.0005966085        5.9999147788
  C         5.2291088206        6.0004849874        6.0000887953
  H         4.8190196787        5.5146491465        6.8959560844
  H         4.8184788491        5.4677962546        5.1320494965
  H         4.8187076386        7.0191281824        5.9735900740
  H         7.1809519863        5.5145308171        5.1040123399
  H         7.1813485462        7.0189341888        6.0264190795
  H         7.1814932118        5.4676611723        6.8679965531
       8
 i =      24, E =      -14.9518286026
  C         6.7708877464        6.0005061442        5.9997055593
  C         5.2291118958        6.0006030126        6.0003024863
  H         4.8190396212        5.5145841817        6.8958317006
  H         4.8184406023        5.4678453009        5.1318788508
  H         4.8187215112        7.0190912821        5.9737025726
  H         7.1809175393        5.5144967887        5.1041774263
  H         7.1813665659        7.0190074520        6.0263091303
  H         7.1815137130        5.4677477496        6.8681194339
       8
 i =      25, E =      -14.9518275172
  C         6.7708901774        6.0006507314        5.9998737396
  C         5.2291096636        6.0005802808        6.0001318145
  H         4.8190200358        5.5141274719        6.8956182299
  H         4.8184642676        5.4684401503        5.1316759241
  H         4.8187039567        7.0192078247        5.9742769937
  H         7.1809483462        5.5140137640        5.1043578488
  H         7.1813590917        7.0190333178        6.0257333701
  H         7.1815033802        5.4683105975        6.8683600343
       8
 i =      26, E =      -14.9518274829
  C         6.7708899996        6.0006061364        5.9997641103
  C         5.2291097667        6.0006439964        6.0002430981
  H         4.8190306237        5.5140823758        6.8955456815
  H         4.8184444696        5.4684820886        5.1315796384
  H         4.8187111583        7.0191912837        5.9743514943
  H         7.1809301374        5.5139848291        5.1044517771
  H         7.1813685925        7.0190741081        6.0256602178
  H         7.1815141810        5.4683717321        6.8684319327
       8
 i =      27, E =      -14.9518264474
  C         6.7708909015        6.0005895914        5.9995953992
  C         5.2291084693        6.0007942094        6.0004145259
  H         4.8190452218        5.5136834784        6.8952287100
  H         4.8184097034        5.4689678945        5.1312109324
  H         4.8187180903        7.0192272706        5.9749021074
  H         7.1809036775        5.5136097466        5.1048012773
  H         7.1813880631        7.0191969025        6.0251121800