       8
 i =       0, E =      -14.9519799851
  C         6.7656618716        5.9998968120        5.9996407009
  C         5.2342705797        6.0001055167        6.0004065709
  H         4.8293425353        5.2072925584        6.5939905687
  H         4.8294845012        5.8816636448        5.0166736063
  H         4.8292870184        6.9106086964        6.3891663664
  H         7.1708531717        5.2078344165        5.4062658756
  H         7.1707481951        6.9105424358        5.6105359604
  H         7.1710894940        5.8820304991        6.9828043281
       8
 i =       1, E =      -14.9545391243
  C         6.7488838007        6.0001976846        5.9999867793
  C         5.2510045253        5.9998479014        5.9999800511
  H         4.8241741577        5.1949064946        6.6066688992
  H         4.8243646465        5.8769625027        4.9997902670
  H         4.8240558436        6.9279798805        6.3936830623
  H         7.1761023370        5.1951333827        5.3933683133
  H         7.1758960860        6.9277916879        5.6060754071
  H         7.1762468071        5.8772955710        6.9999276868
       8
 i =       2, E =      -14.9551435931
  C         6.7675664288        6.0000043717        5.9997793152
  C         5.2324423268        6.0000592825        6.0002154444
  H         4.8250921919        5.1912448093        6.6102045547
  H         4.8251869911        5.8757313730        4.9946186589
  H         4.8250131352        6.9327903914        6.3950240651
  H         7.1751089205        5.1915525346        5.3898860494
  H         7.1749688714        6.9328582592        5.6046451431
  H         7.1753471760        5.8760882856        7.0051038451
       8
 i =       3, E =      -14.9553176715
  C         6.7612808418        6.0001992039        5.9999822675
  C         5.2387754045        5.9999254004        5.9999735678
  H         4.8242188441        5.1873026404        6.6137172569
  H         4.8243259963        5.8747252713        4.9895114866
  H         4.8241114159        6.9379403224        6.3967438686
  H         7.1760081116        5.1874592135        5.3862756988
  H         7.1758113218        6.9379047683        5.6029757289
  H         7.1761919709        5.8750651802        7.0102951096
       8
 i =       4, E =      -14.9553514120
  C         6.7684879833        6.0000549126        5.9998213256
  C         5.2316275331        6.0001039207        6.0001452773
  H         4.8256925682        5.1866087119        6.6141729388
  H         4.8257353442        5.8746883033        4.9884906211
  H         4.8256158037        6.9386265066        6.3970511831
  H         7.1744922271        5.1868374862        5.3858688448
  H         7.1743433883        6.9387839831        5.6026053516
  H         7.1747295377        5.8750485365        7.0113162872
       8
 i =       5, E =      -14.9553761071
  C         6.7638024502        6.0002550674        6.0000362437
  C         5.2363365476        5.9999522812        5.9999000954
  H         4.8257268827        5.1852132411        6.6153400686
  H         4.8257952475        5.8744389241        4.9867640873
  H         4.8256175554        6.9404867702        6.3977354364
  H         7.1744961020        5.1853062905        5.3846148340
  H         7.1742916695        6.9405056966        5.6019828195
  H         7.1746594465        5.8747818480        7.0130956059
       8
 i =       6, E =      -14.9553809248
  C         6.7679011268        6.0000747053        5.9998248572
  C         5.2322611993        6.0001733556        6.0001213391
  H         4.8270759646        5.1855063291        6.6149251065
  H         4.8270947482        5.8746469672        4.9870219058
  H         4.8270063563        6.9399007501        6.3975991321
  H         7.1731090721        5.1857197917        5.3851092005
  H         7.1729605139        6.9401246199        5.6020486932
  H         7.1733200087        5.8750149047        7.0128142919
       8
 i =       7, E =      -14.9553948077
  C         6.7665088345        6.0001709812        5.9999301787
  C         5.2336565450        6.0000935945        6.0000059647
  H         4.8271142113        5.1852038896        6.6151634755
  H         4.8271506658        5.8746173572        4.9866792215
  H         4.8270276118        6.9403329371        6.3977720293
  H         7.1730918729        5.1853556648        5.3848308173
  H         7.1729164853        6.9404801831        5.6019074024
  H         7.1732632225        5.8749765609        7.0131741257
       8
 i =       8, E =      -14.9553821825
  C         6.7627943586        6.0003853337        6.0001431567
  C         5.2374043066        5.9999946841        5.9997581938
  H         4.8281457278        5.1841268214        6.6158079605
  H         4.8282191719        5.8746901529        4.9853911822
  H         4.8280324936        6.9416495735        6.3984129216
  H         7.1721100390        5.1841605001        5.3841108648
  H         7.1718790199        6.9416792912        5.6013260043
  H         7.1721609164        5.8750377334        7.0145038655
       8
 i =       9, E =      -14.9554064148
  C         6.7659374438        6.0002324420        5.9999598510
  C         5.2342571514        6.0001722665        5.9999527097
  H         4.8287983602        5.1846188716        6.6153033610
  H         4.8288455873        5.8748606775        4.9859257964
  H         4.8287180420        6.9408902484        6.3981662370
  H         7.1714298037        5.1847631190        5.3846864000
  H         7.1712437470        6.9410750375        5.6015150670
  H         7.1715172465        5.8752277383        7.0139410261
       8
 i =      10, E =      -14.9554035241
  C         6.7637219014        6.0004942460        6.0002264241
  C         5.2364781469        6.0000205395        5.9996629248
  H         4.8293599100        5.1840644396        6.6154943287
  H         4.8294785348        5.8750550944        4.9853586350
  H         4.8292412351        6.9415941254        6.3986013857
  H         7.1709346593        5.1840722862        5.3844040760
  H         7.1706788718        6.9415977949        5.6011563769
  H         7.1708683355        5.8754044460        7.0145357833
       8
 i =      11, E =      -14.9554119168
  C         6.7655021491        6.0002942287        5.9999810662
  C         5.2346964994        6.0002540434        5.9999141683
  H         4.8297205384        5.1843055533        6.6151880999
  H         4.8298089037        5.8751687022        4.9855517130
  H         4.8296467929        6.9410939770        6.3984518522
  H         7.1705326192        5.1844624717        5.3848065896
  H         7.1703348347        6.9412970308        5.6012308826
  H         7.1705216054        5.8755422394        7.0143117435
       8
 i =      12, E =      -14.9554129584
  C         6.7654465708        6.0003328541        6.0000132995
  C         5.2347528425        6.0002516289        5.9998778794
  H         4.8299058852        5.1842377892        6.6151492762
  H         4.8300101624        5.8752528661        4.9854848067
  H         4.8298286642        6.9411482159        6.3985282328
  H         7.1703583870        5.1843820128        5.3848358486
  H         7.1701514658        6.9413351513        5.6011623269
  H         7.1703138783        5.8756255007        7.0143803638
       8
 i =      13, E =      -14.9554136754
  C         6.7643884902        6.0005538749        6.0002311050
  C         5.2358139584        6.0001419041        5.9996431940
  H         4.8301595853        5.1838992592        6.6151523927
  H         4.8303373265        5.8754876082        4.9851706299
  H         4.8300498246        6.9415561416        6.3988557465
  H         7.1701587834        5.1839355218        5.3847572315
  H         7.1698959294        6.9415998299        5.6008931927
  H         7.1699753780        5.8758459390        7.0147141345
       8
 i =      14, E =      -14.9554157912
  C         6.7648982330        6.0004625498        6.0001171058
  C         5.2353045046        6.0002537592        5.9997588184
  H         4.8302619765        5.1839626722        6.6150444383
  H         4.8304281831        5.8755357204        4.9851981399
  H         4.8301733102        6.9413803032        6.3988098196
  H         7.1700367006        5.1840696315        5.3849105383
  H         7.1698007724        6.9415172613        5.6009038492
  H         7.1698773315        5.8759053409        7.0146725092
       8
 i =      15, E =      -14.9554166797
  C         6.7654766574        6.0004116160        6.0000344273
  C         5.2347265902        6.0003689733        5.9998390084
  H         4.8304615710        5.1839976268        6.6148515582
  H         4.8306373086        5.8756886621        4.9852063576
  H         4.8303899713        6.9412058863        6.3988269610
  H         7.1698276845        5.1841645406        5.3851392689
  H         7.1696105918        6.9414223464        5.6008575087
  H         7.1696559709        5.8760688117        7.0146509471
       8
 i =      16, E =      -14.9554176318
  C         6.7649510441        6.0005192039        6.0001475936
  C         5.2352536905        6.0002962572        5.9997198759
  H         4.8304520679        5.1838812322        6.6148742747
  H         4.8306594487        5.8757550977        4.9851106369
  H         4.8303615821        6.9413847298        6.3989427085
  H         7.1698615274        5.1839881388        5.3850750783
  H         7.1696169520        6.9415215682        5.6007727782
  H         7.1696336367        5.8761267082        7.0147573555
       8
 i =      17, E =      -14.9554185130
  C         6.7653029909        6.0004553424        6.0000501747
  C         5.2349022565        6.0004243066        5.9998145813
  H         4.8305798122        5.1838834314        6.6147203210
  H         4.8307951760        5.8758874747        4.9850666073
  H         4.8305089209        6.9412489658        6.3989637793
  H         7.1697202565        5.1840597992        5.3852708275
  H         7.1694985281        6.9414767145        5.6007177730
  H         7.1694869092        5.8762708675        7.0147869421
       8
 i =      18, E =      -14.9554192001
  C         6.7650019138        6.0005690089        6.0001708654
  C         5.2352045292        6.0003428534        5.9996889339
  H         4.8305799760        5.1838128282        6.6147111963
  H         4.8308274716        5.8759590286        4.9850312413
  H         4.8304881723        6.9413810417        6.3990592580
  H         7.1697455878        5.1839237765        5.3852347335
  H         7.1694949349        6.9415226298        5.6006555551
  H         7.1694554058        5.8763331152        7.0148333155
       8
 i =      19, E =      -14.9554199744
  C         6.7649958256        6.0005856929        6.0001722238
  C         5.2352115174        6.0003773998        5.9996836708
  H         4.8306340490        5.1837725832        6.6146305483
  H         4.8309013152        5.8760621321        4.9849778962
  H         4.8305435174        6.9413787939        6.3991177630
  H         7.1696953871        5.1838925534        5.3853179850
  H         7.1694443331        6.9415316775        5.6005932464
  H         7.1693761789        5.8764385505        7.0148836881
       8
 i =      20, E =      -14.9554209105
  C         6.7651848524        6.0005414062        6.0000947423
  C         5.2350234341        6.0004952094        5.9997576461
  H         4.8307102645        5.1837518595        6.6144880422
  H         4.8309934264        5.8762010982        4.9849084622
  H         4.8306355368        6.9412841347        6.3991564002
  H         7.1696087894        5.1839319672        5.3854949647
  H         7.1693765376        6.9415148979        5.6005253011
  H         7.1692746616        5.8765880100        7.0149402281
       8
 i =      21, E =      -14.9554214123
  C         6.7650243507        6.0006355946        6.0001933343
  C         5.2351846954        6.0004301865        5.9996553982
  H         4.8307080455        5.1837122011        6.6144638766
  H         4.8310188496        5.8762654916        4.9849002132
  H         4.8306158628        6.9413713869        6.3992264726
  H         7.1696316720        5.1838390716        5.3854818837
  H         7.1693760410        6.9415321043        5.6004821160
  H         7.1692504237        5.8766449119        7.0149571730
       8
 i =      22, E =      -14.9554218248
  C         6.7650078178        6.0006469483        6.0001958849
  C         5.2352018029        6.0004498370        5.9996507891
  H         4.8307214487        5.1836909896        6.6144178492
  H         4.8310451395        5.8763240725        4.9848702362
  H         4.8306294143        6.9413718769        6.3992583190
  H         7.1696203442        5.1838226002        5.3855287402
  H         7.1693644331        6.9415382495        5.6004482209
  H         7.1692218625        5.8767047695        7.0149854811
       8
 i =      23, E =      -14.9554225395
  C         6.7650909236        6.0006301029        6.0001565545
  C         5.2351196542        6.0005235702        5.9996873358
  H         4.8307554246        5.1836711121        6.6143182201
  H         4.8310955493        5.8764276868        4.9848183075
  H         4.8306716172        6.9413224158        6.3992931432
  H         7.1695815524        5.1838373541        5.3856468942
  H         7.1693356490        6.9415331131        5.6003966327
  H         7.1691660266        5.8768146922        7.0150296826
       8
 i =      24, E =      -14.9554231674
  C         6.7649955068        6.0007151118        6.0002374890
  C         5.2352158918        6.0004866727        5.9996016561
  H         4.8307604452        5.1836348087        6.6142573737
  H         4.8311329790        5.8765236795        4.9848015080
  H         4.8306625575        6.9413818796        6.3993667399
  H         7.1695943913        5.1837617596        5.3856781547
  H         7.1693296420        6.9415405478        5.6003430086
  H         7.1691285127        5.8769056517        7.0150521364
       8
 i =       0, E =      -14.9554227726
  C         6.7648907188        6.0000110664        5.9998114082
  C         5.2351110017        5.9999793481        6.0001898312
  H         4.8309581128        5.1831351193        6.6150546746
  H         4.8303394160        5.8761415652        4.9856488849
  H         4.8309438179        6.9408976967        6.4002908955
  H         7.1689769825        5.1830500713        5.3849250477
  H         7.1690806294        6.9408133778        5.5997167738
  H         7.1696805405        5.8760763912        7.0143489550
       8
 i =       1, E =      -14.9554241449
  C         6.7651452082        5.9997869078        5.9995249375
  C         5.2348406227        6.0002668910        6.0004930813
  H         4.8310233808        5.1830943545        6.6147441838
  H         4.8304631537        5.8764569870        4.9854262283
  H         4.8310638898        6.9406990083        6.4003347028
  H         7.1688733885        5.1831781357        5.3853419047
  H         7.1690330405        6.9408393627        5.5995837141
  H         7.1695390918        5.8764185134        7.0145376267
       8
 i =       2, E =      -14.9554250045
  C         6.7648073060        6.0002214102        5.9999968289
  C         5.2351859176        5.9999675730        5.9999992279
  H         4.8309644469        5.1830173059        6.6147780350
  H         4.8305113410        5.8765522247        4.9855899950
  H         4.8309599832        6.9409958951        6.4005012818
  H         7.1690083726        5.1828541156        5.3851483573
  H         7.1690362322        6.9407970498        5.5995478122
  H         7.1695069395        5.8764738522        7.0144255332
       8
 i =       3, E =      -14.9554255379
  C         6.7649853585        5.9999219606        5.9996443891
  C         5.2350087994        6.0002476626        6.0003633774
  H         4.8309935181        5.1830320729        6.6146632502
  H         4.8304977552        5.8766026039        4.9853932796
  H         4.8310377070        6.9407773093        6.4004356402
  H         7.1689170012        5.1830670529        5.3853929793
  H         7.1690364872        6.9408414002        5.5995122172
  H         7.1695038903        5.8765545359        7.0145816164
       8
 i =       4, E =      -14.9554259411
  C         6.7648681060        6.0002193235        5.9999804749
  C         5.2351263778        6.0000318743        6.0000188085
  H         4.8309701402        5.1830138108        6.6146546263
  H         4.8305529996        5.8766837241        4.9855301012
  H         4.8309778194        6.9409682759        6.4005400446
  H         7.1689965249        5.1828715924        5.3852863874
  H         7.1690289140        6.9407997357        5.5994969138
  H         7.1694595519        5.8766077362        7.0144797568
       8
 i =       5, E =      -14.9554261080
  C         6.7649341289        6.0000121217        5.9997229481
  C         5.2350606091        6.0002499794        6.0002807170
  H         4.8309776580        5.1830329077        6.6146009762
  H         4.8305366529        5.8766930686        4.9853752278
  H         4.8310251958        6.9408312989        6.4004642149
  H         7.1689428558        5.1830370490        5.3854362975
  H         7.1690386286        6.9408547716        5.5994990662
  H         7.1694648308        5.8766389745        7.0146075035
       8
 i =       6, E =      -14.9554260501
  C         6.7648924182        6.0002202189        5.9999615287
  C         5.2351024130        6.0000994795        6.0000390645
  H         4.8309638964        5.1830604435        6.6146099900
  H         4.8305826943        5.8767205785        4.9854808446
  H         4.8309839344        6.9409770762        6.4004948999
  H         7.1689963672        5.1829398936        5.3853460996
  H         7.1690333398        6.9408384834        5.5995302956
  H         7.1694254023        5.8766471074        7.0145244220
       8
 i =       7, E =      -14.9554260104
  C         6.7649014994        6.0001660519        5.9998908537
  C         5.2350934276        6.0001641003        6.0001101605
  H         4.8309626041        5.1830763862        6.6146086722
  H         4.8305776457        5.8767077200        4.9854367815
  H         4.8309946715        6.9409483974        6.4004564284
  H         7.1689847068        5.1829968730        5.3853745669
  H         7.1690384982        6.9408632158        5.5995482934
  H         7.1694274923        5.8766402082        7.0145613542
       8
 i =       8, E =      -14.9554231994
  C         6.7649546855        6.0000082447        5.9996252509
  C         5.2350412139        6.0005404367        6.0003775172
  H         4.8309214864        5.1833727048        6.6146771521
  H         4.8306171461        5.8765356527        4.9852036119
  H         4.8310218716        6.9409734140        6.4000180691
  H         7.1689688155        5.1834747648        5.3854271308
  H         7.1690868140        6.9411259984        5.5998955447
  H         7.1693692466        5.8764940515        7.0147628109
       8
 i =       9, E =      -14.9554231836
  C         6.7649083504        6.0002830524        5.9999496404
  C         5.2350874230        6.0003105537        6.0000505353
  H         4.8309045633        5.1834353603        6.6147564232
  H         4.8306638980        5.8764928651        4.9853748260
  H         4.8309609102        6.9411875262        6.4000160954
  H         7.1690416635        5.1833618360        5.3852330398
  H         7.1690815265        6.9411122314        5.5999844815
  H         7.1693329416        5.8764244289        7.0146222466
       8
 i =      10, E =      -14.9554178834
  C         6.7648820055        6.0002967974        5.9999011661
  C         5.2351136843        6.0004791401        6.0000920691
  H         4.8308336583        5.1838941293        6.6151956622
  H         4.8306727945        5.8759368859        4.9853313015
  H         4.8309144798        6.9414639310        6.3993468008
  H         7.1690959207        5.1838738190        5.3848331007
  H         7.1691495927        6.9414557160        5.6006273080
  H         7.1693201453        5.8758718919        7.0146598289
       8
 i =      11, E =      -14.9554175043
  C         6.7649171487        6.0003869301        6.0000078328
  C         5.2350785203        6.0004051462        5.9999910773
  H         4.8308339180        5.1839512076        6.6152242325
  H         4.8306981034        5.8759085586        4.9853873673
  H         4.8308968113        6.9415460891        6.3993149559
  H         7.1691148245        5.1838717108        5.3847652228
  H         7.1691465955        6.9414646487        5.6006866476
  H         7.1692963617        5.8758352825        7.0146098039
       8
 i =      12, E =      -14.9554172448
  C         6.7649187554        6.0003883841        6.0000029877
  C         5.2350769338        6.0004220489        5.9999956628
  H         4.8308298917        5.1839778650        6.6152435041
  H         4.8307015493        5.8758843527        4.9853785021
  H         4.8308949749        6.9415629138        6.3992776208
  H         7.1691170946        5.1839035227        5.3847494227
  H         7.1691506763        6.9414880553        5.6007214716
  H         7.1692924583        5.8758117816        7.0146179434
       8
 i =      13, E =      -14.9554177568
  C         6.7649200006        6.0003804605        6.0000085399
  C         5.2350755699        6.0003884280        5.9999909623
  H         4.8308390138        5.1839236237        6.6152061394
  H         4.8306931694        5.8759299862        4.9853968767
  H         4.8308999683        6.9415247401        6.3993519846
  H         7.1691110217        5.1838407473        5.3847810454
  H         7.1691417948        6.9414392335        5.6006511267
  H         7.1693016087        5.8758562347        7.0146004837
       8
 i =      14, E =      -14.9554171210
  C         6.7649136554        6.0003648969        5.9999733649
  C         5.2350820253        6.0004475255        6.0000239690
  H         4.8308277047        5.1839827227        6.6152558226
  H         4.8306956590        5.8758666043        4.9853624051
  H         4.8308982568        6.9415537647        6.3992571310
  H         7.1691136602        5.1839257440        5.3847485916
  H         7.1691536613        6.9415005696        5.6007338221
  H         7.1692976580        5.8757965435        7.0146320130
       8
 i =      15, E =      -14.9554123743
  C         6.7649807752        6.0008020559        6.0004008784
  C         5.2350152805        6.0003206696        5.9996089332
  H         4.8307728456        5.1844655847        6.6155331294
  H         4.8308478085        5.8755705939        4.9854813902
  H         4.8307916825        6.9420992060        6.3987877236
  H         7.1692328557        5.1842027979        5.3843357035
  H         7.1691920719        6.9417879446        5.6013003523
  H         7.1691498812        5.8754706537        7.0145386946
       8
 i =      16, E =      -14.9554131679
  C         6.7649527905        6.0006419726        6.0001927340
  C         5.2350430367        6.0005079079        5.9998094548
  H         4.8307658696        5.1844415186        6.6155159616
  H         4.8308180701        5.8755714343        4.9853539069
  H         4.8308228813        6.9419882871        6.3987456564
  H         7.1691999814        5.1843015490        5.3844345606
  H         7.1692059399        6.9418318199        5.6012839399
  H         7.1691744958        5.8754888401        7.0146505621
       8
 i =      17, E =      -14.9554134993
  C         6.7649306137        6.0005508784        6.0000664963
  C         5.2350652121        6.0006337985        5.9999301238
  H         4.8307601081        5.1844232117        6.6154861545
  H         4.8308054797        5.8755972471        4.9852666036
  H         4.8308415014        6.9419201905        6.3987305869
  H         7.1691805526        5.1843601082        5.3845157689
  H         7.1692156275        6.9418601911        5.6012624906
  H         7.1691839775        5.8755251711        7.0147285133
       8
 i =      18, E =      -14.9554149786
  C         6.7649243269        6.0007887131        6.0002797385
  C         5.2350723134        6.0005836370        5.9997203067
  H         4.8307523963        5.1844201120        6.6152706103
  H         4.8309039207        5.8758940564        4.9852798921
  H         4.8308057179        6.9420299570        6.3988877041
  H         7.1692193983        5.1842541012        5.3846656069
  H         7.1692163145        6.9418395386        5.6011532609
  H         7.1690893233        5.8758041178        7.0147291095
       8
 i =      19, E =      -14.9554151992
  C         6.7649215811        6.0006652224        6.0001211999
  C         5.2350747027        6.0007368732        5.9998754188
  H         4.8307468668        5.1844138119        6.6152569218
  H         4.8308843906        5.8758936766        4.9851797278
  H         4.8308295016        6.9419489438        6.3988435693
  H         7.1691937332        5.1843444671        5.3847433242
  H         7.1692287899        6.9418820807        5.6011505340
  H         7.1691041932        5.8758177216        7.0148154422
       8
 i =      20, E =      -14.9554158190
  C         6.7649234633        6.0008543576        6.0002670847
  C         5.2350715114        6.0007422247        5.9997297547
  H         4.8307240189        5.1844644631        6.6151399022
  H         4.8309527818        5.8760684506        4.9851630256
  H         4.8307875510        6.9420802964        6.3988852081
  H         7.1692364509        5.1843280510        5.3848168514
  H         7.1692487383        6.9419280075        5.6011407855
  H         7.1690390191        5.8759817811        7.0148430158
       8
 i =      21, E =      -14.9554160725
  C         6.7649231981        6.0007966057        6.0001949619
  C         5.2350721478        6.0008184764        5.9998014259
  H         4.8307219684        5.1844534081        6.6151159527
  H         4.8309464569        5.8760906714        4.9851118005
  H         4.8307992066        6.9420372450        6.3988800337
  H         7.1692233425        5.1843636306        5.3848717183
  H         7.1692546228        6.9419447461        5.6011231471
  H         7.1690425743        5.8760107517        7.0148864886
       8
 i =      22, E =      -14.9554168669
  C         6.7649219085        6.0007798230        6.0001481085
  C         5.2350743458        6.0009138294        5.9998479267
  H         4.8307161371        5.1844291016        6.6150167803
  H         4.8309609792        5.8762135043        4.9850395789
  H         4.8308045396        6.9420027285        6.3989268334
  H         7.1692160590        5.1843776898        5.3849971314
  H         7.1692640881        6.9419593098        5.6010571548
  H         7.1690253631        5.8761382387        7.0149517863
       8
 i =      23, E =      -14.9554174250
  C         6.7649196210        6.0009362090        6.0003006998
  C         5.2350756046        6.0008239888        5.9996959418
  H         4.8307127902        5.1844304802        6.6149420622
  H         4.8310031586        5.8763294942        4.9850890621
  H         4.8307754832        6.9420870639        6.3990097841
  H         7.1692469825        5.1842917805        5.3850152325
  H         7.1692613651        6.9419326228        5.6010158101
  H         7.1689881026        5.8762401561        7.0149165254
       8
 i =      24, E =      -14.9554177175
  C         6.7649194215        6.0008519988        6.0001962807
  C         5.2350761099        6.0009348657        5.9997996889
  H         4.8307093020        5.1844175466        6.6149119603
  H         4.8309933120        5.8763561022        4.9850161014
  H         4.8307919107        6.9420267096        6.3989971841
  H         7.1692284167        5.1843466972        5.3850901938
  H         7.1692705974        6.9419593870        5.6009951943
  H         7.1689940148        5.8762766919        7.0149783896
       8
 i =      25, E =      -14.9554187649
  C         6.7649178299        6.0009918759        6.0003100480
  C         5.2350781264        6.0009163467        5.9996865610
  H         4.8307007227        5.1844068202        6.6147759425
  H         4.8310422261        5.8765467053        4.9850138491
  H         4.8307663484        6.9420895249        6.3991024799
  H         7.1692536602        5.1842789618        5.3851892119
  H         7.1692762564        6.9419486139        5.6009173505
  H         7.1689475876        5.8764582035        7.0149892999
       8
 i =      26, E =      -14.9554189600
  C         6.7649173386        6.0009495452        6.0002557189
  C         5.2350784623        6.0009770276        5.9997404055
  H         4.8306985298        5.1843991244        6.6147558846
  H         4.8310380567        5.8765666283        4.9849739201
  H         4.8307747147        6.9420578131        6.3990986551
  H         7.1692442456        5.1843070076        5.3852329754
  H         7.1692815829        6.9419631075        5.6009035106
  H         7.1689498197        5.8764832450        7.0150236129
       8
 i =      27, E =      -14.9554200360
  C         6.7649149195        6.0009329995        6.0001912442
  C         5.2350801434        6.0011187459        5.9998039057
  H         4.8306875692        5.1843719635        6.6146160195
  H         4.8310589917        5.8767427034        4.9848720073
  H         4.8307790300        6.9420180661        6.3991595398
  H         7.1692369306        5.1843328309        5.3854087590
  H         7.1692990293        6.9419926363        5.6008155921