       8
 i =       0, E =      -14.9508604276
  C         6.7674457071        5.9998885572        5.9995719482
  C         5.2325580387        6.0000954597        6.0004827926
  H         4.8258019899        5.7597636255        6.9606320618
  H         4.8261561872        5.2878709765        5.3114219729
  H         4.8258300274        6.9518351777        5.7272583655
  H         7.1740986820        5.7602829816        5.0392560334
  H         7.1739579271        6.9523017935        6.2723829119
  H         7.1741105514        5.2881359011        6.6883963592
       8
 i =       1, E =      -14.9534248074
  C         6.7511975307        6.0001755202        6.0001412075
  C         5.2488002326        5.9998260100        5.9998200528
  H         4.8210080329        5.7659022091        6.9805625365
  H         4.8215026530        5.2679946737        5.3072558574
  H         4.8210830305        6.9658505931        5.7121065904
  H         7.1789018267        5.7663491176        5.0193029855
  H         7.1786416271        6.9660480038        6.2875249005
  H         7.1788258489        5.2681005175        6.6927146025
       8
 i =       2, E =      -14.9541439411
  C         6.7688190959        6.0000234135        5.9997023411
  C         5.2311753581        6.0000645237        6.0002753142
  H         4.8222132441        5.7758158858        6.9880273501
  H         4.8224769686        5.2561177776        5.3117586143
  H         4.8222046364        6.9675857791        5.6997693328
  H         7.1776960618        5.7762353296        5.0118656005
  H         7.1776024866        6.9679778069        6.2999714429
  H         7.1777744765        5.2563794055        6.6880833239
       8
 i =       3, E =      -14.9543751101
  C         6.7633939274        6.0001802144        6.0000959511
  C         5.2365995540        5.9998715805        5.9998443065
  H         4.8216262748        5.7825895672        6.9950093010
  H         4.8219621133        5.2469234466        5.3143962780
  H         4.8216319594        6.9701633856        5.6905695029
  H         7.1782959436        5.7829556277        5.0048606086
  H         7.1781390469        6.9703868639        6.3091663041
  H         7.1783144680        5.2470922836        6.6855273813
       8
 i =       4, E =      -14.9545114895
  C         6.7696256082        6.0000232413        5.9997233683
  C         5.2303664590        6.0000445340        6.0002194001
  H         4.8232879717        5.7913853645        6.9977726486
  H         4.8234624752        5.2398008551        5.3203526481
  H         4.8232250763        6.9683333977        5.6816126080
  H         7.1766349626        5.7917372357        5.0021213963
  H         7.1766046987        6.9687109078        6.3182069548
  H         7.1767570415        5.2400927889        6.6794763503
       8
 i =       5, E =      -14.9545918779
  C         6.7655906562        6.0001865203        6.0001297060
  C         5.2344009685        5.9998362160        5.9997895153
  H         4.8235450078        5.7967025170        7.0007163160
  H         4.8238117933        5.2349112985        5.3237590640
  H         4.8235038281        6.9680959959        5.6756866791
  H         7.1763935382        5.7970122948        4.9991487533
  H         7.1762797794        6.9682941746        6.3241043498
  H         7.1764391214        5.2350935780        6.6761596036
       8
 i =       6, E =      -14.9546674697
  C         6.7687804202        5.9999885243        5.9996458357
  C         5.2312106916        6.0000589787        6.0002782739
  H         4.8250391487        5.8028586136        7.0013346987
  H         4.8251388114        5.2309556117        5.3284552902
  H         4.8249265826        6.9657237955        5.6700057625
  H         7.1748968991        5.8031753889        4.9985615370
  H         7.1749180543        6.9661158769        6.3298638549
  H         7.1750542535        5.2312807221        6.6713556237
       8
 i =       7, E =      -14.9546930098
  C         6.7676040054        6.0000754914        5.9998484493
  C         5.2323871323        5.9999611042        6.0000686801
  H         4.8251278882        5.8042318906        7.0020231428
  H         4.8252781515        5.2298413815        5.3294365340
  H         4.8250307994        6.9655578934        5.6685187411
  H         7.1748151842        5.8045335049        4.9978584008
  H         7.1747887566        6.9658609995        6.3313287279
  H         7.1749330178        5.2301083188        6.6704199379
       8
 i =       8, E =      -14.9547943459
  C         6.7642321537        6.0002327869        6.0001915912
  C         5.2357596965        5.9997883130        5.9997002640
  H         4.8264797172        5.8138646919        7.0051045051
  H         4.8266786332        5.2227200741        5.3364767600
  H         4.8263782509        6.9632676400        5.6587219751
  H         7.1734873718        5.8141198463        4.9947503878
  H         7.1733971116        6.9634046358        6.3411057475
  H         7.1735532432        5.2228867155        6.6634591388
       8
 i =       9, E =      -14.9548279385
  C         6.7667481111        6.0000796304        5.9997950382
  C         5.2332435272        5.9999904798        6.0001051373
  H         4.8271392545        5.8154890530        7.0046193246
  H         4.8272145981        5.2220361564        5.3378680954
  H         4.8269904629        6.9621646674        5.6574431389
  H         7.1728233747        5.8157628160        4.9952597466
  H         7.1728315572        6.9624668474        6.3424379917
  H         7.1729754243        5.2223195820        6.6619808005
       8
 i =      10, E =      -14.9548798867
  C         6.7648085077        6.0003126653        6.0002778246
  C         5.2351822632        5.9997761728        5.9996034414
  H         4.8277865906        5.8204173243        7.0062110604
  H         4.8279645186        5.2186306015        5.3416663640
  H         4.8276650877        6.9608826656        5.6523564914
  H         7.1721998765        5.8206581904        4.9936340403
  H         7.1720912814        6.9609694530        6.3474636409
  H         7.1722673006        5.2187685256        6.6582906239
       8
 i =      11, E =      -14.9548954216
  C         6.7662066657        6.0000971328        5.9997610933
  C         5.2337840283        6.0000388593        6.0001288332
  H         4.8281772803        5.8214079600        7.0058292051
  H         4.8282042061        5.2180634394        5.3423681410
  H         4.8279993852        6.9602453514        5.6515471055
  H         7.1718006401        5.8216761901        4.9940492230
  H         7.1718200351        6.9605553856        6.3483445578
  H         7.1719731056        5.2183590795        6.6574725840
       8
 i =      12, E =      -14.9549090626
  C         6.7661294179        6.0001274339        5.9998115574
  C         5.2338612466        6.0000237916        6.0000752358
  H         4.8283726154        5.8226287600        7.0061019778
  H         4.8284069787        5.2172639580        5.3433137815
  H         4.8281965799        6.9598537604        5.6503248578
  H         7.1716100615        5.8228934319        4.9937724314
  H         7.1716150290        6.9601422172        6.3495605944
  H         7.1717732652        5.2175451369        6.6565374260
       8
 i =      13, E =      -14.9549371467
  C         6.7652385493        6.0003216100        6.0002216979
  C         5.2347524711        5.9998523613        5.9996504504
  H         4.8286122057        5.8252756957        7.0069978681
  H         4.8287559547        5.2154818952        5.3453728258
  H         4.8284797646        6.9591872809        5.6475583275
  H         7.1713886346        5.8255195694        4.9928485487
  H         7.1712774654        6.9593062045        6.3522714369
  H         7.1714597409        5.2156447123        6.6545641962
       8
 i =      14, E =      -14.9549416801
  C         6.7656323074        6.0002172303        5.9999804148
  C         5.2343583227        5.9999758284        5.9998953920
  H         4.8287309059        5.8255891497        7.0068348659
  H         4.8288086515        5.2152718966        5.3455580726
  H         4.8285750545        6.9589836719        5.6473012404
  H         7.1712659374        5.8258464175        4.9930268276
  H         7.1712120101        6.9592093487        6.3525627702
  H         7.1713813403        5.2155106401        6.6543234580
       8
 i =      15, E =      -14.9549515885
  C         6.7660637244        6.0001424642        5.9997926485
  C         5.2339258172        6.0000843017        6.0000838439
  H         4.8289311975        5.8265644378        7.0067828267
  H         4.8289642946        5.2146651236        5.3462665009
  H         4.8287644881        6.9585428395        5.6463906117
  H         7.1710657594        5.8268335900        4.9930898582
  H         7.1710443898        6.9588573280        6.3535001131
  H         7.1712036255        5.2149666155        6.6535686172
       8
 i =      16, E =      -14.9549566676
  C         6.7656389391        6.0002400933        6.0000142140
  C         5.2343514120        5.9999836588        5.9998563156
  H         4.8288988177        5.8269846264        7.0070471704
  H         4.8290022450        5.2143903963        5.3466168126
  H         4.8287627568        6.9584969644        5.6459143154
  H         7.1711048677        5.8272437278        4.9928110258
  H         7.1710174819        6.9587204152        6.3539452108
  H         7.1711866332        5.2146277109        6.6532645854
       8
 i =      17, E =      -14.9549635987
  C         6.7659041208        6.0001472332        5.9997956277
  C         5.2340853045        6.0001033262        6.0000756355
  H         4.8290327319        5.8276752170        7.0069703772
  H         4.8290892633        5.2139208436        5.3470694817
  H         4.8288857506        6.9581929535        5.6452617718
  H         7.1709696293        5.8279484849        4.9929008100
  H         7.1709201708        6.9585178472        6.3546288790
  H         7.1710750742        5.2142311997        6.6527584630
       8
 i =      18, E =      -14.9549670795
  C         6.7656579308        6.0002547974        6.0000351748
  C         5.2343318348        5.9999956321        5.9998301443
  H         4.8289991530        5.8279649146        7.0071778203
  H         4.8291329277        5.2137727352        5.3473456740
  H         4.8288871743        6.9581546291        5.6449352633
  H         7.1710100935        5.8282273308        4.9926773065
  H         7.1708880733        6.9583819613        6.3549214958
  H         7.1710546287        5.2140133569        6.6525326147
       8
 i =      19, E =      -14.9549718779
  C         6.7656441219        6.0002511028        6.0000227259
  C         5.2343454483        6.0000119685        5.9998402251
  H         4.8290419956        5.8284186004        7.0072288534
  H         4.8291866923        5.2134750849        5.3476686270
  H         4.8289407827        6.9580000693        5.6444785803
  H         7.1709695006        5.8286841263        4.9926261057
  H         7.1708346343        6.9582396739        6.3553799463
  H         7.1709979217        5.2137248207        6.6522027641
       8
 i =      20, E =      -14.9549765841
  C         6.7657870743        6.0001727700        5.9998417074
  C         5.2342020163        6.0001123969        6.0000208532
  H         4.8291174255        5.8288957357        7.0071527478
  H         4.8292350030        5.2131345750        5.3479509249
  H         4.8290154783        6.9577980445        5.6440175139
  H         7.1708932449        5.8291745545        4.9927123087
  H         7.1707802267        6.9581236666        6.3558664237
  H         7.1709292651        5.2134475947        6.6518742634
       8
 i =      21, E =      -14.9549783590
  C         6.7656551934        6.0002609858        6.0000378232
  C         5.2343339557        6.0000255943        5.9998194401
  H         4.8290830657        5.8290382369        7.0072872403
  H         4.8292669395        5.2130889403        5.3481094556
  H         4.8290125756        6.9577853960        5.6438508407
  H         7.1709330308        5.8293086379        4.9925645630
  H         7.1707580703        6.9580309884        6.3560053237
  H         7.1709165876        5.2133452871        6.6517564553
       8
 i =      22, E =      -14.9549798548
  C         6.7656395582        6.0002594021        6.0000335044
  C         5.2343492934        6.0000333915        5.9998221994
  H         4.8290882647        5.8291815712        7.0072968925
  H         4.8292824161        5.2129939019        5.3482026341
  H         4.8290265509        6.9577399249        5.6437018229
  H         7.1709289792        5.8294539436        4.9925543090
  H         7.1707437942        6.9579912291        6.3561549281
  H         7.1709000232        5.2132549139        6.6516596151
       8
 i =      23, E =      -14.9549821368
  C         6.7657030080        6.0002169012        5.9999353110
  C         5.2342851615        6.0000908615        5.9999192501
  H         4.8291170085        5.8294130304        7.0072439026
  H         4.8293045205        5.2128257851        5.3483244009
  H         4.8290614210        6.9576440570        5.6434725437
  H         7.1709001810        5.8296937185        4.9926119623
  H         7.1707196347        6.9579444833        6.3563980355
  H         7.1708667585        5.2131229253        6.6515111579
       8
 i =      24, E =      -14.9549837748
  C         6.7656232717        6.0002876177        6.0000904499
  C         5.2343648713        6.0000273597        5.9997588361
  H         4.8290884315        5.8295608457        7.0073370377
  H         4.8293384146        5.2127737636        5.3484676768
  H         4.8290661991        6.9576178183        5.6433033483
  H         7.1709336134        5.8298364250        4.9925077057
  H         7.1706943975        6.9578584658        6.3565451213
  H         7.1708476472        5.2130288093        6.6513976703
       8
 i =       0, E =      -14.9549836398
  C         6.7656290606        6.0000284859        5.9997994794
  C         5.2343706551        5.9999895353        6.0001998032
  H         4.8295512487        5.8295837793        7.0079719918
  H         4.8289191549        5.2127930736        5.3491040798
  H         4.8290400452        6.9576377881        5.6439359469
  H         7.1704330952        5.8295165337        4.9920234942
  H         7.1710089141        6.9575415526        6.3560583464
  H         7.1710509296        5.2127125310        6.6509146893
       8
 i =       1, E =      -14.9549865678
  C         6.7658400356        5.9997573560        5.9992140856
  C         5.2341608665        6.0002850519        6.0008058550
  H         4.8296434458        5.8300795499        7.0076527342
  H         4.8289281689        5.2123508709        5.3492040718
  H         4.8291296710        6.9574238403        5.6434599061
  H         7.1703330950        5.8300452836        4.9923765624
  H         7.1709872721        6.9575856916        6.3566141574
  H         7.1709801598        5.2124521563        6.6506802805
       8
 i =       2, E =      -14.9549877741
  C         6.7655603699        6.0001809095        6.0001125324
  C         5.2344409074        5.9998948716        5.9998831112
  H         4.8294800339        5.8300488089        7.0081420871
  H         4.8290274697        5.2126363259        5.3494840887
  H         4.8290895761        6.9575201976        5.6434355823
  H         7.1705127708        5.8299692684        4.9918380535
  H         7.1709195526        6.9573062309        6.3565143976
  H         7.1709720905        5.2124636915        6.6505984032
       8
 i =       3, E =      -14.9549896591
  C         6.7657047428        5.9998566256        5.9994178413
  C         5.2342961270        6.0002131652        6.0005933512
  H         4.8295889391        5.8302726173        7.0077937143
  H         4.8289597507        5.2122731976        5.3493741918
  H         4.8291283088        6.9574130948        5.6432369349
  H         7.1703906959        5.8302286151        4.9922278582
  H         7.1709665552        6.9574961342        6.3568114598
  H         7.1709676034        5.2123157068        6.6505526565
       8
 i =       4, E =      -14.9549924939
  C         6.7656111032        6.0001553627        6.0000510061
  C         5.2343899043        5.9999415678        5.9999478831
  H         4.8294958010        5.8304861261        7.0081612999
  H         4.8290555919        5.2123312796        5.3497506623
  H         4.8291256190        6.9573941697        5.6429973727
  H         7.1704965998        5.8304097533        4.9918228066
  H         7.1708931881        6.9572128823        6.3569635406
  H         7.1709349301        5.2121829599        6.6503137891
       8
 i =       5, E =      -14.9549957571
  C         6.7656643461        5.9999184317        5.9995428362
  C         5.2343365855        6.0001775914        6.0004647621
  H         4.8295757262        5.8308218989        7.0079484934
  H         4.8290105876        5.2119430244        5.3497928608
  H         4.8291582186        6.9572694009        5.6426789432
  H         7.1704063219        5.8307718779        4.9920677106
  H         7.1709238903        6.9573071715        6.3573548193
  H         7.1709271735        5.2119523613        6.6501578328
       8
 i =       6, E =      -14.9549991241
  C         6.7656283683        6.0001297841        5.9999876433
  C         5.2343725595        5.9999888690        6.0000131966
  H         4.8295197450        5.8311154644        7.0082156679
  H         4.8290917202        5.2119014446        5.3501668785
  H         4.8291696000        6.9572012235        5.6423762135
  H         7.1704718051        5.8310424828        4.9917731509
  H         7.1708590187        6.9570533226        6.3575959224
  H         7.1708900185        5.2117772899        6.6498798197
       8
 i =       7, E =      -14.9550005733
  C         6.7656341209        6.0000641085        5.9998470342
  C         5.2343667802        6.0000559604        6.0001557630
  H         4.8295415952        5.8312465699        7.0081617828
  H         4.8290809851        5.2117695994        5.3502055999
  H         4.8291802164        6.9571545264        5.6422510615
  H         7.1704469745        5.8311808519        4.9918363599
  H         7.1708661181        6.9570681750        6.3577416763
  H         7.1708860567        5.2116895642        6.6498091999
       8
 i =       8, E =      -14.9550185284
  C         6.7656495505        5.9997994002        5.9992578712
  C         5.2343511295        6.0003826130        6.0007532164
  H         4.8296636454        5.8332228939        7.0081077410
  H         4.8291343876        5.2103158217        5.3513769345
  H         4.8293195405        6.9565087441        5.6403226794
  H         7.1703126153        5.8331899737        4.9919314361
  H         7.1708065997        6.9566937132        6.3597608061
  H         7.1707655055        5.2104311517        6.6484981617
       8
 i =       9, E =      -14.9550213161
  C         6.7656057091        6.0000903870        5.9998753512
  C         5.2343950703        6.0001157786        6.0001287252
  H         4.8295757940        5.8332875738        7.0084147908
  H         4.8292234358        5.2104909869        5.3516526890
  H         4.8293139850        6.9565105055        5.6402473272
  H         7.1704137237        5.8332228398        4.9915853525
  H         7.1707375783        6.9564371213        6.3597494601
  H         7.1707376308        5.2104203955        6.6483553896
       8
 i =      10, E =      -14.9550276774
  C         6.7655466821        6.0000397156        5.9997274484
  C         5.2344543958        6.0002207413        6.0002717016
  H         4.8295675693        5.8339704407        7.0083387021
  H         4.8292472044        5.2100747137        5.3520544397
  H         4.8293520641        6.9562800582        5.6395967613
  H         7.1704171384        5.8339124050        4.9916766449
  H         7.1707211339        6.9562783708        6.3604259612
  H         7.1706969353        5.2100531382        6.6479179386
       8
 i =      11, E =      -14.9550273837
  C         6.7655708320        6.0001316747        5.9999318300
  C         5.2344300453        6.0001476775        6.0000715959
  H         4.8295328181        5.8339251868        7.0084111674
  H         4.8292745519        5.2101810116        5.3520830551
  H         4.8293507717        6.9562992585        5.6396376906
  H         7.1704575288        5.8338569909        4.9915886960
  H         7.1706998725        6.9562198066        6.3603585230
  H         7.1706866606        5.2101058197        6.6479270313
       8
 i =      12, E =      -14.9550271134
  C         6.7655723761        6.0001270810        5.9999172325
  C         5.2344284862        6.0001586280        6.0000861896
  H         4.8295266527        5.8339029933        7.0083916287
  H         4.8292713215        5.2101951549        5.3520507078
  H         4.8293490091        6.9563113935        5.6396570720
  H         7.1704633237        5.8338355149        4.9916094275
  H         7.1707038104        6.9562389757        6.3603415894
  H         7.1706881203        5.2101249075        6.6479557832
       8
 i =      13, E =      -14.9550276844
  C         6.7655719624        6.0001328804        5.9999394064
  C         5.2344288346        6.0001386734        6.0000645398
  H         4.8295415786        5.8339501489        7.0084287145
  H         4.8292767790        5.2101619363        5.3521172091
  H         4.8293527957        6.9562843782        5.6396167864
  H         7.1704491429        5.8338814702        4.9915700584
  H         7.1706963007        6.9562003849        6.3603777970
  H         7.1706856057        5.2100837264        6.6478950128
       8
 i =      14, E =      -14.9550270563
  C         6.7655688794        6.0001011688        5.9998580468
  C         5.2344319506        6.0001820060        6.0001445368
  H         4.8295324349        5.8339012637        7.0083637386
  H         4.8292618749        5.2101759876        5.3520269123
  H         4.8293477047        6.9563124218        5.6396590997
  H         7.1704560146        5.8338366299        4.9916416747
  H         7.1707117869        6.9562631174        6.3603474672
  H         7.1706923987        5.2101217770        6.6479681625
       8
 i =      15, E =      -14.9550204820
  C         6.7656260031        6.0004626074        6.0006160353
  C         5.2343751505        5.9999729271        5.9993935215
  H         4.8292990750        5.8334912558        7.0084962391
  H         4.8293524968        5.2107817143        5.3518163047
  H         4.8293210672        6.9565406022        5.6400077166
  H         7.1707072664        5.8333898446        4.9914603692
  H         7.1706616931        6.9562197597        6.3599076062
  H         7.1706607166        5.2105371688        6.6483123666
       8
 i =      16, E =      -14.9550222126
  C         6.7656064013        6.0002820661        6.0001981598
  C         5.2343946240        6.0001448240        5.9998082418
  H         4.8293474427        5.8335071947        7.0082946930
  H         4.8292960224        5.2106339042        5.3516642615
  H         4.8293228655        6.9565375288        5.6399935178
  H         7.1706486098        5.8334263607        4.9916911797
  H         7.1707080973        6.9563811723        6.3599776071
  H         7.1706794028        5.2105046633        6.6483825195
       8
 i =      17, E =      -14.9550222661
  C         6.7655919686        6.0001734125        5.9999402164
  C         5.2344090305        6.0002534600        6.0000628208
  H         4.8293735779        5.8335073242        7.0081612952
  H         4.8292638998        5.2105547451        5.3515555378
  H         4.8293252798        6.9565435839        5.6399922384
  H         7.1706157613        5.8334390748        4.9918435575
  H         7.1707356609        6.9564889346        6.3600135655
  H         7.1706883341        5.2104961846        6.6484410254
       8
 i =      18, E =      -14.9550199098
  C         6.7655914714        6.0003622913        6.0003282920
  C         5.2344092880        6.0001511532        5.9996738685
  H         4.8292827420        5.8333428355        7.0082268570
  H         4.8293431097        5.2108488934        5.3514814036
  H         4.8293412364        6.9566449119        5.6401275487
  H         7.1707141995        5.8332557861        4.9917562509
  H         7.1706819628        6.9564535008        6.3598327197
  H         7.1706393608        5.2106926616        6.6485837989
       8
 i =      19, E =      -14.9550198234
  C         6.7655887147        6.0002226218        5.9999977585
  C         5.2344120699        6.0002919724        6.0000056415
  H         4.8293174395        5.8333104866        7.0080502995
  H         4.8292976548        5.2107651489        5.3513196407
  H         4.8293420324        6.9566592665        5.6401596825
  H         7.1706722225        5.8332393553        4.9919538812
  H         7.1707191314        6.9565980100        6.3598445168
  H         7.1706541123        5.2107016531        6.6486793191
       8
 i =      20, E =      -14.9550151257
  C         6.7655989002        6.0003587044        6.0002592365
  C         5.2344026523        6.0002381122        5.9997407551
  H         4.8292198098        5.8328991117        7.0080247828
  H         4.8293382704        5.2111728878        5.3510024061
  H         4.8293343077        6.9568576261        5.6405299805
  H         7.1707739618        5.8328155870        4.9919666641
  H         7.1707020608        6.9567060680        6.3594442496
  H         7.1706337864        5.2110435751        6.6490431666
       8
 i =      21, E =      -14.9550150552
  C         6.7655989297        6.0002920321        6.0001010739
  C         5.2344024145        6.0003095939        5.9999013681
  H         4.8292359427        5.8328852741        7.0079377946
  H         4.8293172937        5.2111317168        5.3509217709
  H         4.8293359487        6.9568652464        5.6405430308
  H         7.1707547649        5.8328093678        4.9920628701
  H         7.1707191033        6.9567775360        6.3594526105
  H         7.1706393548        5.2110484919        6.6490907019
       8
 i =      22, E =      -14.9550138236
  C         6.7656017528        6.0002496830        5.9999813439
  C         5.2343992980        6.0003816484        6.0000233340
  H         4.8292313626        5.8327912278        7.0078320739
  H         4.8293063461        5.2111703025        5.3507631629
  H         4.8293387856        6.9569182892        5.6406258273
  H         7.1707569039        5.8327209443        4.9921761443
  H         7.1707322452        6.9568831623        6.3593875937
  H         7.1706372270        5.2111248847        6.6492218655
       8
 i =      23, E =      -14.9550125601
  C         6.7656042687        6.0003920383        6.0002918165
  C         5.2343970098        6.0002714337        5.9997083858
  H         4.8291729857        5.8326806054        7.0079374507
  H         4.8293548830        5.2113663553        5.3507639181
  H         4.8293380227        6.9569775180        5.6407218656
  H         7.1708208486        5.8325955531        4.9920540425
  H         7.1706995759        6.9568248328        6.3592523059
  H         7.1706163321        5.2112360140        6.6492818439
       8
 i =      24, E =      -14.9550123288
  C         6.7656038319        6.0002949750        6.0000604514
  C         5.2343972814        6.0003750935        5.9999431601
  H         4.8291965768        5.8326567161        7.0078085136
  H         4.8293241864        5.2113099819        5.3506441528
  H         4.8293400586        6.9569892213        5.6407453508
  H         7.1707927161        5.8325827269        4.9921965393
  H         7.1707245455        6.9569292294        6.3592598853
  H         7.1706246970        5.2112464997        6.6493535560
       8
 i =      25, E =      -14.9550101593
  C         6.7656079190        6.0004047609        6.0002777117
  C         5.2343931502        6.0003187280        5.9997236010
  H         4.8291359225        5.8324711679        7.0078326426
  H         4.8293628747        5.2115371542        5.3505242098
  H         4.8293401108        6.9570881686        5.6409092401
  H         7.1708572066        5.8323866618        4.9921609350
  H         7.1707028829        6.9569501657        6.3590700601
  H         7.1706038047        5.2114172990        6.6495135615
       8
 i =      26, E =      -14.9550099945
  C         6.7656077821        6.0003530787        6.0001548833
  C         5.2343932545        6.0003750601        5.9998479411
  H         4.8291473818        5.8324534112        7.0077621641
  H         4.8293467928        5.2115113766        5.3504549261
  H         4.8293411874        6.9570969737        5.6409264444
  H         7.1708431949        5.8323748202        4.9922389743
  H         7.1707163399        6.9570089273        6.3590696227
  H         7.1706079062        5.2114274102        6.6495570110
       8
 i =      27, E =      -14.9550078297
  C         6.7656104046        6.0002958411        5.9999877193
  C         5.2343908511        6.0004795939        6.0000174840
  H         4.8291368785        5.8322889806        7.0076017737
  H         4.8293313392        5.2115939825        5.3502040506
  H         4.8293435644        6.9571834794        5.6410752820
  H         7.1708497671        5.8322184967        4.9924107235
  H         7.1707362327        6.9571694533        6.3589457282