       8
 i =       0, E =      -14.9488685537
  C         6.7691191925        5.9998170134        5.9994827310
  C         5.2308632857        6.0001624520        6.0006060139
  H         4.8220046882        5.4154490200        6.7966446904
  H         4.8226733895        5.6015812602        5.0949332920
  H         4.8221726822        6.9821177259        6.1068794020
  H         7.1779281100        5.4163221143        5.2032915845
  H         7.1775563283        6.9827177933        5.8925430766
  H         7.1778735936        5.6020567777        6.9046504624
       8
 i =       1, E =      -14.9514073012
  C         6.7531299750        6.0003717907        6.0004043025
  C         5.2468231151        5.9996910770        5.9995731393
  H         4.8166186910        5.4028873649        6.8095449521
  H         4.8175321715        5.5970859161        5.0783422728
  H         4.8167562535        6.9996094015        6.1114064463
  H         7.1834226615        5.4034934025        5.1901282319
  H         7.1827987309        6.9997138861        5.8881159688
  H         7.1831131769        5.5974242442        6.9215217092
       8
 i =       2, E =      -14.9520143678
  C         6.7716543141        5.9999905630        5.9997553446
  C         5.2283363455        6.0000407992        6.0002267226
  H         4.8172438353        5.3993978762        6.8127984555
  H         4.8178959282        5.5957710555        5.0729934971
  H         4.8173459689        7.0041802965        6.1128118780
  H         7.1827395858        5.4001000076        5.1870288034
  H         7.1823252669        7.0047262170        5.8867161072
  H         7.1826534083        5.5962252602        6.9267051500
       8
 i =       3, E =      -14.9521791147
  C         6.7659227000        6.0003192911        6.0003210245
  C         5.2340843375        5.9997637933        5.9996035867
  H         4.8160574192        5.3961595604        6.8170570665
  H         4.8168243331        5.5939639195        5.0684088217
  H         4.8161327000        7.0095396152        6.1135762980
  H         7.1839852477        5.3967042147        5.1826326494
  H         7.1834389228        7.0097974959        5.8860204321
  H         7.1837479248        5.5943530224        6.9314141209
       8
 i =       4, E =      -14.9522103549
  C         6.7729876047        6.0000388998        5.9998008010
  C         5.2270387850        6.0000639548        6.0001149441
  H         4.8171496774        5.3954046375        6.8171834361
  H         4.8177275186        5.5940660925        5.0671319052
  H         4.8172019142        7.0100512681        6.1141651338
  H         7.1828605385        5.3960321170        5.1826314343
  H         7.1824598193        7.0106513570        5.8854368158
  H         7.1827673280        5.5945475229        6.9325651413
       8
 i =       5, E =      -14.9522316113
  C         6.7686413003        6.0003914889        6.0003985255
  C         5.2313927672        5.9997756753        5.9994755824
  H         4.8168712057        5.3941109068        6.8185897752
  H         4.8175825025        5.5937674752        5.0656933775
  H         4.8169022677        7.0119901518        6.1146575240
  H         7.1832075750        5.3945863237        5.1810821281
  H         7.1826604491        7.0122719785        5.8850031251
  H         7.1829347576        5.5941785161        6.9341248613
       8
 i =       6, E =      -14.9522350841
  C         6.7725768965        6.0000521630        5.9997410315
  C         5.2274651605        6.0001582151        6.0001296730
  H         4.8179211198        5.3941919061        6.8176981476
  H         4.8184378303        5.5942761403        5.0655811891
  H         4.8179435034        7.0112019479        6.1149907942
  H         7.1821175478        5.3947992902        5.1821346522
  H         7.1817310292        7.0118835069        5.8846523349
  H         7.1820002526        5.5947911137        6.9340897249
       8
 i =       7, E =      -14.9522479034
  C         6.7712880630        6.0002242184        6.0000374674
  C         5.2287549619        6.0000128798        5.9998207391
  H         4.8178585986        5.3938815870        6.8180114779
  H         4.8184482553        5.5942875361        5.0653606783
  H         4.8178736929        7.0116657438        6.1151322024
  H         7.1822132346        5.3944191457        5.1817499008
  H         7.1817524704        7.0121844961        5.8845334858
  H         7.1820039533        5.5947658156        6.9343691079
       8
 i =       8, E =      -14.9522354452
  C         6.7679040726        6.0005921274        6.0005851529
  C         5.2321453530        5.9998082734        5.9992166165
  H         4.8182796372        5.3927085477        6.8186302657
  H         4.8189905775        5.5946288947        5.0642654845
  H         4.8182661233        7.0129616307        6.1159023859
  H         7.1818836944        5.3931070622        5.1810066980
  H         7.1812744840        7.0132094924        5.8838276904
  H         7.1814486629        5.5950549926        6.9355639486
       8
 i =       9, E =      -14.9522582933
  C         6.7708455902        6.0003071119        6.0000365624
  C         5.2292036892        6.0001224388        5.9997768786
  H         4.8188576161        5.3930321950        6.8177858410
  H         4.8194284650        5.5949944557        5.0644884096
  H         4.8188481728        7.0120774385        6.1159893026
  H         7.1812666731        5.3935547099        5.1819834097
  H         7.1807839822        7.0126436564        5.8837100695
  H         7.1809578627        5.5955001708        6.9352221770
       8
 i =      10, E =      -14.9522557822
  C         6.7689005210        6.0007650072        6.0007502091
  C         5.2311503530        5.9998324189        5.9990232114
  H         4.8190418646        5.3923157571        6.8180077947
  H         4.8198120124        5.5954961447        5.0641517678
  H         4.8190154400        7.0128277579        6.1165495153
  H         7.1811822219        5.3926838000        5.1815955514
  H         7.1805028893        7.0130148205        5.8832009105
  H         7.1805864384        5.5959201844        6.9356935075
       8
 i =      11, E =      -14.9522645157
  C         6.7704946017        6.0003932679        6.0000281389
  C         5.2295558073        6.0002431874        5.9997576832
  H         4.8193815695        5.3925049446        6.8174294769
  H         4.8199741061        5.5956303309        5.0639937904
  H         4.8193662180        7.0122259914        6.1166016695
  H         7.1807853542        5.3930381563        5.1823481276
  H         7.1802709598        7.0128274282        5.8831053918
  H         7.1803633852        5.5961545011        6.9357015646
       8
 i =      12, E =      -14.9522660124
  C         6.7704598427        6.0004564174        6.0001039759
  C         5.2295905622        6.0002330176        5.9996745423
  H         4.8194795017        5.3923701253        6.8173528537
  H         4.8200997978        5.5958103173        5.0639206785
  H         4.8194621458        7.0122836277        6.1167575855
  H         7.1807043813        5.3928893485        5.1824076943
  H         7.1801637210        7.0128507063        5.8829549083
  H         7.1802321180        5.5963285969        6.9357864154
       8
 i =      13, E =      -14.9522675473
  C         6.7695607014        6.0008390578        6.0006816109
  C         5.2304895583        6.0000197414        5.9990669165
  H         4.8195215522        5.3918323465        6.8173775844
  H         4.8203253235        5.5963349972        5.0637311106
  H         4.8194965745        7.0127746531        6.1172439956
  H         7.1807409343        5.3922339194        5.1822471144
  H         7.1800372809        7.0130400127        5.8825024949
  H         7.1800204942        5.5967870303        6.9360840963
       8
 i =      14, E =      -14.9522704283
  C         6.7700050373        6.0006694539        6.0003435865
  C         5.2300456870        6.0002159975        5.9994106963
  H         4.8196262030        5.3918837156        6.8171546924
  H         4.8203499259        5.5963765776        5.0635956012
  H         4.8196077095        7.0125574563        6.1172758472
  H         7.1806090597        5.3923634327        5.1825515812
  H         7.1799813116        7.0130166459        5.8824496878
  H         7.1799678938        5.5968754572        6.9361491903
       8
 i =      15, E =      -14.9522721460
  C         6.7705189611        6.0005644976        6.0000767814
  C         5.2295325051        6.0004123661        5.9996755012
  H         4.8197791650        5.3918182467        6.8168073552
  H         4.8204580767        5.5966317516        5.0634114512
  H         4.8197678929        7.0123600529        6.1174697027
  H         7.1804432037        5.3923657061        5.1829645599
  H         7.1798656257        7.0129832668        5.8822378012
  H         7.1798284305        5.5971723631        6.9362728664
       8
 i =      16, E =      -14.9522736268
  C         6.7700625330        6.0007558138        6.0003872645
  C         5.2299885266        6.0002783181        5.9993558360
  H         4.8197227972        5.3916254438        6.8168718435
  H         4.8204953492        5.5968095730        5.0633997790
  H         4.8197082622        7.0125876692        6.1176264334
  H         7.1805342716        5.3921067401        5.1828247731
  H         7.1798751425        7.0130435295        5.8820984858
  H         7.1798070735        5.5973124820        6.9363432223
       8
 i =      17, E =      -14.9522752870
  C         6.7703715324        6.0006282708        6.0000767608
  C         5.2296801821        6.0004971592        5.9996619970
  H         4.8198274584        5.3915497259        6.8165668858
  H         4.8205472163        5.5970172518        5.0631560135
  H         4.8198223455        7.0124263254        6.1178042670
  H         7.1804100482        5.3921095944        5.1832069861
  H         7.1798120002        7.0130693580        5.8818996698
  H         7.1797240837        5.5975663861        6.9365199801
       8
 i =      18, E =      -14.9522765840
  C         6.7701132628        6.0008306446        6.0004122197
  C         5.2299381951        6.0003486885        5.9993209709
  H         4.8197850055        5.3913895974        6.8166007005
  H         4.8206038538        5.5972130569        5.0632061340
  H         4.8197759995        7.0126123470        6.1179506365
  H         7.1804888790        5.3918769316        5.1830905822
  H         7.1798044674        7.0130749069        5.8817717271
  H         7.1796854038        5.5977219921        6.9365312316
       8
 i =      19, E =      -14.9522781359
  C         6.7701101036        6.0008531341        6.0003925403
  C         5.2299415263        6.0004037353        5.9993346432
  H         4.8198112192        5.3912679858        6.8164576860
  H         4.8206472590        5.5974123051        5.0630818799
  H         4.8198062033        7.0126211311        6.1181162138
  H         7.1804678010        5.3917663127        5.1832391556
  H         7.1797778631        7.0131053805        5.8816027544
  H         7.1796336581        5.5979283720        6.9366467200
       8
 i =      20, E =      -14.9522800030
  C         6.7702741335        6.0007613734        6.0001344921
  C         5.2297779862        6.0006039148        5.9995859922
  H         4.8198744716        5.3911567170        6.8161729292
  H         4.8206785116        5.5976460961        5.0628235740
  H         4.8198799562        7.0125136341        6.1183180200
  H         7.1803886877        5.3917234783        5.1835884741
  H         7.1797461831        7.0131573175        5.8813820237
  H         7.1795766233        5.5982018783        6.9368479615
       8
 i =      21, E =      -14.9522810998
  C         6.7701371526        6.0009283929        6.0004090553
  C         5.2299148620        6.0004851377        5.9993081344
  H         4.8198420496        5.3910352894        6.8161790232
  H         4.8207291300        5.5978211189        5.0628777429
  H         4.8198447665        7.0126477518        6.1184398826
  H         7.1804504331        5.3915429000        5.1835142647
  H         7.1797373163        7.0131448739        5.8812747651
  H         7.1795410888        5.5983446584        6.9368426251
       8
 i =      22, E =      -14.9522819836
  C         6.7701235163        6.0009450951        6.0004013954
  C         5.2299285871        6.0005170041        5.9993121305
  H         4.8198462583        5.3909657208        6.8160972691
  H         4.8207464385        5.5979377917        5.0628058553
  H         4.8198519601        7.0126565901        6.1185346440
  H         7.1804486007        5.3914792886        5.1835982541
  H         7.1797314577        7.0131646413        5.8811778481
  H         7.1795203183        5.5984650650        6.9369099006
       8
 i =      23, E =      -14.9522835034
  C         6.7701934412        6.0009077452        6.0002620340
  C         5.2298589653        6.0006411322        5.9994456681
  H         4.8198736574        5.3908711923        6.8159034457
  H         4.8207662288        5.5981243219        5.0626297449
  H         4.8198871197        7.0126071999        6.1186904388
  H         7.1804133809        5.3914242708        5.1838269796
  H         7.1797189183        7.0132052376        5.8810105522
  H         7.1794861025        5.5986745895        6.9370532329
       8
 i =      24, E =      -14.9522848479
  C         6.7701134486        6.0010545973        6.0004763260
  C         5.2299389976        6.0005710862        5.9992272264
  H         4.8198512505        5.3907307930        6.8158379946
  H         4.8208212001        5.5983556464        5.0626283974
  H         4.8198648980        7.0127118004        6.1188557944
  H         7.1804605697        5.3912409734        5.1838390067
  H         7.1797068152        7.0132013011        5.8808549147
  H         7.1794411242        5.5988833507        6.9370891841
       8
 i =       0, E =      -14.9522842118
  C         6.7700878845        6.0000229186        5.9998516680
  C         5.2299128810        5.9999605343        6.0001486909
  H         4.8204783727        5.3902319299        6.8171705404
  H         4.8197451125        5.5978575051        5.0639609138
  H         4.8202358415        7.0122132683        6.1201891529
  H         7.1794482526        5.3900975806        5.1828026497
  H         7.1798376954        7.0120576583        5.8798194383
  H         7.1802456034        5.5977392341        6.9360530280
       8
 i =       1, E =      -14.9522855327
  C         6.7703023814        5.9995961555        5.9990080372
  C         5.2296935364        6.0004482473        6.0010124172
  H         4.8205685103        5.3900103802        6.8165236362
  H         4.8197361989        5.5983255522        5.0632447184
  H         4.8203663565        7.0119460069        6.1206028120
  H         7.1792976352        5.3900708743        5.1836465527
  H         7.1798357740        7.0122474236        5.8793514209
  H         7.1801912504        5.5983195581        6.9366066035
       8
 i =       2, E =      -14.9522784689
  C         6.7700230094        6.0003462804        6.0002766453
  C         5.2299738110        5.9998894151        5.9997237979
  H         4.8204025185        5.3907899631        6.8174928124
  H         4.8199143975        5.5975995200        5.0643924206
  H         4.8202218021        7.0124460437        6.1195472103
  H         7.1795758035        5.3905718627        5.1823805865
  H         7.1797822971        7.0120604716        5.8804820356
  H         7.1800979616        5.5974327325        6.9357019693
       8
 i =       3, E =      -14.9522703000
  C         6.7701306197        5.9998139125        5.9992940846
  C         5.2298665228        6.0003875103        6.0007133898
  H         4.8204707285        5.3918532893        6.8178174069
  H         4.8197548667        5.5964282625        5.0643241637
  H         4.8202974303        7.0122328884        6.1183808397
  H         7.1794188204        5.3918565312        5.1822944419
  H         7.1798628983        7.0123885381        5.8815896472
  H         7.1801897331        5.5963855057        6.9355833984
       8
 i =       4, E =      -14.9522644548
  C         6.7700553643        6.0003242019        6.0001840158
  C         5.2299419736        5.9999874745        5.9998199422
  H         4.8203555644        5.3924210581        6.8185275188
  H         4.8198829616        5.5958929131        5.0651011235
  H         4.8201911225        7.0126368113        6.1176117265
  H         7.1796143873        5.3922280756        5.1813734339
  H         7.1798317946        7.0123146194        5.8824095903
  H         7.1801184313        5.5957396789        6.9349708395
       8
 i =       5, E =      -14.9522598492
  C         6.7701154172        5.9999552444        5.9994668990
  C         5.2298821608        6.0003698334        6.0005369014
  H         4.8203931866        5.3930603252        6.8187172046
  H         4.8197602706        5.5951571150        5.0649503337
  H         4.8202411339        7.0125072863        6.1169032796
  H         7.1795111523        5.3930293087        5.1813595761
  H         7.1798957217        7.0125793874        5.8830764023
  H         7.1801927027        5.5950938163        6.9349876305
       8
 i =       6, E =      -14.9522563154
  C         6.7701009914        6.0003086889        6.0000891832
  C         5.2298966051        6.0000917645        5.9999153754
  H         4.8203155340        5.3933978280        6.8191634088
  H         4.8198566747        5.5948661546        5.0654462624
  H         4.8201683362        7.0128007420        6.1164451518
  H         7.1796453102        5.3932300013        5.1807657661
  H         7.1798734002        7.0125411978        5.8835692543
  H         7.1801348826        5.5947264942        6.9346043413
       8
 i =       7, E =      -14.9522555934
  C         6.7701128031        6.0002122139        5.9998911209
  C         5.2298847993        6.0002033236        6.0001126164
  H         4.8203243562        5.3935523104        6.8192009329
  H         4.8198235673        5.5946903500        5.0653876826
  H         4.8201824797        7.0127669628        6.1162763910
  H         7.1796182119        5.3934293849        5.1807772302
  H         7.1798908472        7.0126165551        5.8837266853
  H         7.1801546657        5.5945755227        6.9346261207
       8
 i =       8, E =      -14.9522356083
  C         6.7702312292        5.9998903358        5.9990411164
  C         5.2297667343        6.0008265337        6.0009557545
  H         4.8202783781        5.3955776771        6.8202548597
  H         4.8196839962        5.5926024926        5.0656200785
  H         4.8201987773        7.0129563955        6.1139421009
  H         7.1795831806        5.3956571219        5.1799472592
  H         7.1800193103        7.0132993336        5.8860103631
  H         7.1802302026        5.5925983697        6.9342286755
       8
 i =       9, E =      -14.9522400333
  C         6.7701940965        6.0003690491        5.9999098128
  C         5.2298036781        6.0004115749        6.0000962860
  H         4.8202029983        5.3954105743        6.8204097243
  H         4.8198328455        5.5929010510        5.0660321547
  H         4.8201206121        7.0132430403        6.1140875604
  H         7.1797391006        5.3952958898        5.1795804594
  H         7.1799628857        7.0131173952        5.8859121455
  H         7.1801355501        5.5927899036        6.9339723349
       8
 i =      10, E =      -14.9522445818
  C         6.7701680084        6.0003801908        5.9997080004
  C         5.2298298294        6.0006802659        6.0002706429
  H         4.8201982151        5.3950542798        6.8199222898
  H         4.8198691831        5.5935598864        5.0655950445
  H         4.8201601114        7.0132239774        6.1146420100
  H         7.1797164766        5.3949992015        5.1801390999
  H         7.1799629024        7.0132292420        5.8853470948
  H         7.1800870193        5.5934736581        6.9343775158
       8
 i =      11, E =      -14.9522449955
  C         6.7701773064        6.0005328578        5.9999707921
  C         5.2298204104        6.0005600831        6.0000335094
  H         4.8201801452        5.3950332172        6.8199436006
  H         4.8199188712        5.5936613043        5.0657093271
  H         4.8201365847        7.0133226577        6.1146763045
  H         7.1797639574        5.3949122294        5.1800437111
  H         7.1799461553        7.0131867291        5.8853258865
  H         7.1800482994        5.5935469464        6.9342982075
       8
 i =      12, E =      -14.9522451769
  C         6.7701764509        6.0005348352        5.9999529092
  C         5.2298212499        6.0005874526        6.0000505227
  H         4.8201783534        5.3950313993        6.8199181536
  H         4.8199210597        5.5936901225        5.0656824925
  H         4.8201386066        7.0133259244        6.1146904816
  H         7.1797633946        5.3949158727        5.1800754473
  H         7.1799480595        7.0132030654        5.8853104029
  H         7.1800445536        5.5935784661        6.9343209919
       8
 i =      13, E =      -14.9522447128
  C         6.7701792819        6.0005229865        5.9999818593
  C         5.2298184183        6.0005331897        6.0000248173
  H         4.8201834563        5.3950442132        6.8199759479
  H         4.8199143616        5.5936156359        5.0657398367
  H         4.8201355106        7.0133134464        6.1146501459
  H         7.1797626889        5.3949190329        5.1800066767
  H         7.1799444071        7.0131693112        5.8853527242
  H         7.1800536091        5.5934996822        6.9342691699
       8
 i =      14, E =      -14.9522450593
  C         6.7701735538        6.0004949435        5.9998779354
  C         5.2298241368        6.0006287541        6.0001196361
  H         4.8201825418        5.3950499657        6.8199110284
  H         4.8199088221        5.5936599249        5.0656502210
  H         4.8201456014        7.0133009373        6.1146711650
  H         7.1797509643        5.3949533638        5.1801040352
  H         7.1799530282        7.0132203669        5.8853256567
  H         7.1800530841        5.5935567628        6.9343417411
       8
 i =      15, E =      -14.9522455175
  C         6.7701843073        6.0012238856        6.0008234702
  C         5.2298135246        6.0004151290        5.9992323142
  H         4.8200694270        5.3948101188        6.8196577193
  H         4.8201578867        5.5945752206        5.0657790383
  H         4.8200574329        7.0138058916        6.1151217488
  H         7.1799590772        5.3944925015        5.1801127121
  H         7.1799036482        7.0132304306        5.8849228160
  H         7.1798463541        5.5943677866        6.9343520677
       8
 i =      16, E =      -14.9522489979
  C         6.7701743310        6.0009538523        6.0003003826
  C         5.2298233633        6.0007222252        5.9997243962
  H         4.8200994553        5.3948240800        6.8195151543
  H         4.8200758637        5.5945118054        5.0654710504
  H         4.8201079584        7.0136338688        6.1151331532
  H         7.1798719936        5.3946386271        5.1804027471
  H         7.1799393329        7.0133588212        5.8848819783
  H         7.1798993508        5.5943674244        6.9345734559
       8
 i =      17, E =      -14.9522501510
  C         6.7701686402        6.0007975250        5.9999756507
  C         5.2298290148        6.0009274443        6.0000241406
  H         4.8201154823        5.3947934245        6.8193846262
  H         4.8200316890        5.5945432043        5.0652482502
  H         4.8201395168        7.0135342948        6.1151975871
  H         7.1798189884        5.3946920862        5.1806280423
  H         7.1799617516        7.0134469140        5.8847995234
  H         7.1799265284        5.5944371027        6.9347448770
       8
 i =      18, E =      -14.9522548629
  C         6.7701716456        6.0011901602        6.0004515010
  C         5.2298262754        6.0008479561        5.9995616510
  H         4.8200613868        5.3943144929        6.8189834652
  H         4.8201764012        5.5954527421        5.0651114444
  H         4.8200985566        7.0137708596        6.1158800857
  H         7.1799168396        5.3941053086        5.1809134719
  H         7.1799329201        7.0134334596        5.8841423890
  H         7.1798075462        5.5952904824        6.9349593002
       8
 i =      19, E =      -14.9522561680
  C         6.7701649262        6.0009881328        6.0000479225
  C         5.2298328706        6.0010989859        5.9999539641
  H         4.8200861173        5.3943221638        6.8188443733
  H         4.8201160668        5.5954349860        5.0648567134
  H         4.8201393865        7.0136378293        6.1159067536
  H         7.1798498776        5.3942131941        5.1811628824
  H         7.1799604061        7.0135371830        5.8840916899
  H         7.1798419761        5.5953248051        6.9351391358
       8
 i =      20, E =      -14.9522603719
  C         6.7701455149        6.0012972057        6.0003608837
  C         5.2298513279        6.0011181050        5.9996367031
  H         4.8200416800        5.3939832991        6.8184676998
  H         4.8202382456        5.5961989437        5.0647151519
  H         4.8201140487        7.0138142398        6.1164398176
  H         7.1799182872        5.3938104971        5.1814736866
  H         7.1799436658        7.0135591492        5.8835749223
  H         7.1797384105        5.5960508043        6.9353354559
       8
 i =      21, E =      -14.9522611821
  C         6.7701458797        6.0012110127        6.0001748744
  C         5.2298512104        6.0012412001        5.9998256212
  H         4.8200527904        5.3939642081        6.8183805105
  H         4.8202106263        5.5962246617        5.0645719650
  H         4.8201324937        7.0137586305        6.1164839450
  H         7.1798891598        5.3938355791        5.1816085788
  H         7.1799569456        7.0136131151        5.8835191900
  H         7.1797520111        5.5961022787        6.9354395738
       8
 i =      22, E =      -14.9522633301
  C         6.7701498126        6.0011940330        6.0000354322
  C         5.2298480911        6.0014014023        5.9999679355
  H         4.8200522672        5.3938086621        6.8181519476
  H         4.8202104428        5.5965058836        5.0643292509
  H         4.8201463769        7.0137481785        6.1167285753
  H         7.1798740922        5.3937166093        5.1818774286
  H         7.1799701721        7.0136942147        5.8832648277
  H         7.1797398475        5.5964048522        6.9356490226
       8
 i =      23, E =      -14.9522649041
  C         6.7701481459        6.0014432557        6.0004044693
  C         5.2298490989        6.0012614978        5.9995939303
  H         4.8200180035        5.3936357600        6.8180646945
  H         4.8202995103        5.5968652556        5.0644103106
  H         4.8201106789        7.0139036199        6.1169663950
  H         7.1799415360        5.3934601588        5.1818757124
  H         7.1799476892        7.0136447605        5.8830486532
  H         7.1796764151        5.5967154187        6.9356407591
       8
 i =      24, E =      -14.9522658996
  C         6.7701452478        6.0013166834        6.0001325850
  C         5.2298522025        6.0014425564        5.9998692616
  H         4.8200350109        5.3936170400        6.8179383972
  H         4.8202601616        5.5968979367        5.0642089669
  H         4.8201385853        7.0138181803        6.1170224925
  H         7.1798979475        5.3935065588        5.1820723611
  H         7.1799664446        7.0137202858        5.8829754681
  H         7.1796954759        5.5967856569        6.9357853111
       8
 i =      25, E =      -14.9522689647
  C         6.7701409056        6.0015484676        6.0003912962
  C         5.2298571086        6.0014255715        5.9996090656
  H         4.8200021749        5.3933551549        6.8176924789
  H         4.8203473790        5.5974392238        5.0641248031
  H         4.8201148984        7.0139582598        6.1174122569
  H         7.1799515391        5.3931903220        5.1822607176
  H         7.1799536628        7.0137277769        5.8825996658
  H         7.1796235962        5.5972959085        6.9359151599
       8
 i =      26, E =      -14.9522696084
  C         6.7701394386        6.0014855574        6.0002485750
  C         5.2298584170        6.0015237949        5.9997527392
  H         4.8200106744        5.3933392210        6.8176171847
  H         4.8203284087        5.5974710258        5.0640129181
  H         4.8201293859        7.0139157997        6.1174524833
  H         7.1799290311        5.3932085824        5.1823731736
  H         7.1799636660        7.0137696998        5.8825504860
  H         7.1796322562        5.5973470255        6.9359978725
       8
 i =      27, E =      -14.9522726771
  C         6.7701329298        6.0014784720        6.0000571942
  C         5.2298642620        6.0017623272        5.9999456568
  H         4.8200105631        5.3931334790        6.8172696131
  H         4.8203375336        5.5979004481        5.0636769281
  H         4.8201502919        7.0139009212        6.1178037170
  H         7.1799075050        5.3930535594        5.1827773578
  H         7.1799809602        7.0138824314        5.8821856599