       8
 i =       0, E =      -14.9508623608
  C         6.7691467800        5.9998328357        5.9994878471
  C         5.2308588387        6.0001431897        6.0005942640
  H         4.8220688773        5.6396454381        6.9293019066
  H         4.8227120104        5.3747055222        5.2227425539
  H         4.8222227708        6.9848537092        5.8464971426
  H         7.1777821306        5.6404244724        5.0705302361
  H         7.1774591610        6.9855536328        6.1529647733
  H         7.1776880974        5.3751029091        6.7769849444
       8
 i =       1, E =      -14.9522035983
  C         6.7577516812        6.0002754708        6.0003341883
  C         5.2422450308        5.9997415776        5.9996310003
  H         4.8182765024        5.6363673877        6.9420335569
  H         4.8191604605        5.3658677452        5.2142807256
  H         4.8184836498        6.9972457919        5.8430791558
  H         7.1816107073        5.6370350661        5.0577009788
  H         7.1810759842        6.9975279484        6.1563822070
  H         7.1813348531        5.3660848541        6.7856655450
       8
 i =       2, E =      -14.9525291670
  C         6.7700225422        5.9999972165        5.9997303106
  C         5.2299692803        5.9999924156        6.0002412957
  H         4.8187590896        5.6363376701        6.9458134474
  H         4.8193836076        5.3621284534        5.2119098885
  H         4.8188697596        7.0007104711        5.8411540349
  H         7.1811141718        5.6370055402        5.0539922494
  H         7.1807889487        7.0012965990        6.1584096669
  H         7.1810313920        5.3625305852        6.7878556399
       8
 i =       3, E =      -14.9526220794
  C         6.7668317587        6.0002347821        6.0001937595
  C         5.2331578633        5.9997683565        5.9997224049
  H         4.8180777176        5.6363927811        6.9499282205
  H         4.8187900183        5.3587825648        5.2103053501
  H         4.8181916353        7.0041159072        5.8391102658
  H         7.1818248260        5.6369835621        5.0498195261
  H         7.1814051555        7.0044816625        6.1604676861
  H         7.1816596188        5.3591029764        6.7895596779
       8
 i =       4, E =      -14.9526659734
  C         6.7711685842        6.0000175528        5.9997191459
  C         5.2288183577        5.9999647641        6.0001902204
  H         4.8188916028        5.6386719609        6.9514891194
  H         4.8193971105        5.3558990131        5.2111759800
  H         4.8189214362        7.0044577729        5.8362961131
  H         7.1810067961        5.6392648014        5.0483169138
  H         7.1807449852        7.0050539588        6.1633618068
  H         7.1809890557        5.3563590846        6.7885575308
       8
 i =       5, E =      -14.9526998317
  C         6.7687202402        6.0002567503        6.0002119275
  C         5.2312659768        5.9997314794        5.9996580834
  H         4.8188593154        5.6406229362        6.9537405393
  H         4.8194615874        5.3532400175        5.2121659136
  H         4.8188940276        7.0052843087        5.8335357098
  H         7.1810739592        5.6411476598        5.0460007722
  H         7.1807042680        7.0056460255        6.1661181150
  H         7.1809584330        5.3536034728        6.7876763738
       8
 i =       6, E =      -14.9527369060
  C         6.7709170183        5.9999767893        5.9996270927
  C         5.2290680548        5.9999727089        6.0002438331
  H         4.8197047006        5.6439682269        6.9545750096
  H         4.8200876685        5.3503987851        5.2142506518
  H         4.8196530395        7.0044737378        5.8301347513
  H         7.1802202216        5.6445220382        5.0452409082
  H         7.1800232445        7.0051102964        6.1695871957
  H         7.1802634519        5.3509111511        6.7854483710
       8
 i =       7, E =      -14.9527514260
  C         6.7701930886        6.0000915890        5.9998752903
  C         5.2297918308        5.9998563397        5.9999838957
  H         4.8197230973        5.6447972565        6.9552407620
  H         4.8201636058        5.3495514927        5.2148395150
  H         4.8196798796        7.0045595274        5.8291109367
  H         7.1802180219        5.6453240008        5.0445419353
  H         7.1799616676        7.0050788991        6.1705998550
  H         7.1802061501        5.3500107164        6.7849155354
       8
 i =       8, E =      -14.9528210079
  C         6.7681873650        6.0002750539        6.0003077915
  C         5.2317963664        5.9996155715        5.9995029670
  H         4.8204094040        5.6510592374        6.9586189350
  H         4.8208855389        5.3436591424        5.2190085848
  H         4.8203243299        7.0041698711        5.8220256787
  H         7.1795861546        5.6515161910        5.0411047214
  H         7.1792499075        7.0044811900        6.1776953577
  H         7.1794974878        5.3440390984        6.7808412801
       8
 i =       9, E =      -14.9528438936
  C         6.7697627744        6.0000354040        5.9998221126
  C         5.2302212931        5.9998201565        6.0000007259
  H         4.8208646965        5.6526002534        6.9585394674
  H         4.8211886927        5.3426178010        5.2200268589
  H         4.8207273013        7.0034471799        5.8206672158
  H         7.1791181244        5.6530975877        5.0412446121
  H         7.1789094755        7.0039858135        6.1790925462
  H         7.1791440582        5.3431130302        6.7797093684
       8
 i =      10, E =      -14.9528952604
  C         6.7685710097        6.0002759063        6.0004205355
  C         5.2314120270        5.9994996774        5.9993696780
  H         4.8212926833        5.6570777741        6.9607087598
  H         4.8217401888        5.3388307567        5.2233102017
  H         4.8211535546        7.0028507998        5.8157918631
  H         7.1787455129        5.6575181483        5.0389967138
  H         7.1783905600        7.0031070471        6.1839341414
  H         7.1786292575        5.3391931427        6.7765642486
       8
 i =      11, E =      -14.9529075459
  C         6.7693713696        5.9999620424        5.9997763261
  C         5.2306118604        5.9997781339        6.0000276270
  H         4.8215795419        5.6580325679        6.9605569129
  H         4.8218376197        5.3380496876        5.2237285781
  H         4.8213813045        7.0024054189        5.8149634818
  H         7.1784368158        5.6585293204        5.0392303025
  H         7.1782468810        7.0029649682        6.1848125301
  H         7.1784690224        5.3385644236        6.7759964112
       8
 i =      12, E =      -14.9529207561
  C         6.7693133246        5.9999765127        5.9998347135
  C         5.2306697333        5.9997359797        5.9999637756
  H         4.8217157155        5.6591449370        6.9609978707
  H         4.8219798721        5.3371365344        5.2245184060
  H         4.8215102366        7.0021959235        5.8137951191
  H         7.1783114459        5.6596367603        5.0387806283
  H         7.1781062479        7.0027283382        6.1859780995
  H         7.1783272968        5.3376394836        6.7752197441
       8
 i =      13, E =      -14.9529483885
  C         6.7687687763        6.0001672887        6.0003189412
  C         5.2312139265        5.9994726841        5.9994551469
  H         4.8218950688        5.6615063369        6.9622070207
  H         4.8222761258        5.3352053634        5.2263129699
  H         4.8217026469        7.0018775815        5.8112460732
  H         7.1781746865        5.6619612849        5.0375057795
  H         7.1778369188        7.0021857377        6.1884906519
  H         7.1780639883        5.3355991146        6.7735348039
       8
 i =      14, E =      -14.9529523225
  C         6.7689853945        6.0000200189        6.0000145005
  C         5.2309973684        5.9996058254        5.9997656070
  H         4.8219891805        5.6618045282        6.9621147383
  H         4.8222824125        5.3349307616        5.2263870578
  H         4.8217704795        7.0017278470        5.8109978405
  H         7.1780700466        5.6622865542        5.0376366576
  H         7.1778086332        7.0021799402        6.1887627277
  H         7.1780283964        5.3353973783        6.7733897858
       8
 i =      15, E =      -14.9529617003
  C         6.7692166277        5.9998886558        5.9997649010
  C         5.2307660845        5.9997009773        6.0000165507
  H         4.8221469622        5.6626747493        6.9622400190
  H         4.8223635526        5.3342132098        5.2268833406
  H         4.8219006352        7.0014521219        5.8101649994
  H         7.1779109116        5.6631817613        5.0375420563
  H         7.1777064289        7.0020242039        6.1896146366
  H         7.1779200170        5.3347411354        6.7728341915
       8
 i =      16, E =      -14.9529663416
  C         6.7689702666        6.0000056915        6.0000296267
  C         5.2310121197        5.9995728724        5.9997433099
  H         4.8221276095        5.6630111021        6.9625387358
  H         4.8224157425        5.3339587492        5.2272184534
  H         4.8218986604        7.0014595301        5.8097683291
  H         7.1779470158        5.6634979696        5.0372081890
  H         7.1776695615        7.0019098046        6.1899899845
  H         7.1778897135        5.3344254197        6.7725585845
       8
 i =      17, E =      -14.9529726592
  C         6.7691088927        5.9998610499        5.9997410433
  C         5.2308736232        5.9996889430        6.0000329601
  H         4.8222438574        5.6636130171        6.9625771048
  H         4.8224468018        5.3334278395        5.2274993955
  H         4.8219868908        7.0012595770        5.8092014296
  H         7.1778258589        5.6641284648        5.0372038023
  H         7.1776147184        7.0018473828        6.1905788997
  H         7.1778293065        5.3339642772        6.7722111809
       8
 i =      18, E =      -14.9529757659
  C         6.7689673429        5.9999905204        6.0000282227
  C         5.2310153443        5.9995544273        5.9997380783
  H         4.8222196184        5.6638243938        6.9628156596
  H         4.8225008036        5.3333031959        5.2277722392
  H         4.8219831754        7.0012735245        5.8089439294
  H         7.1778668656        5.6643180129        5.0369266464
  H         7.1775770072        7.0017295013        6.1908131315
  H         7.1777993091        5.3337748151        6.7720010040
       8
 i =      19, E =      -14.9529800560
  C         6.7689530135        5.9999702862        5.9999978409
  C         5.2310297318        5.9995582953        5.9997646642
  H         4.8222627636        5.6641947924        6.9629315451
  H         4.8225327037        5.3329945248        5.2280079144
  H         4.8220204976        7.0011879188        5.8085703441
  H         7.1778282354        5.6646945134        5.0368130376
  H         7.1775393533        7.0016602301        6.1911883452
  H         7.1777625160        5.3334755321        6.7717564390
       8
 i =      20, E =      -14.9529839424
  C         6.7690259271        5.9998510180        5.9997514602
  C         5.2309561882        5.9996572898        6.0000090390
  H         4.8223408189        5.6645768080        6.9629284656
  H         4.8225387768        5.3326404894        5.2281539050
  H         4.8220752350        7.0010545007        5.8082178816
  H         7.1777467207        5.6651024515        5.0368461453
  H         7.1775117610        7.0016440658        6.1915593900
  H         7.1777325822        5.3331812818        6.7715548216
       8
 i =      21, E =      -14.9529853607
  C         6.7689502674        5.9999582133        5.9999871410
  C         5.2310318949        5.9995503300        5.9997693279
  H         4.8223156401        5.6646556109        6.9630799129
  H         4.8225773737        5.3326236931        5.2283171687
  H         4.8220673163        7.0010771158        5.8081089090
  H         7.1777857054        5.6651635111        5.0366626701
  H         7.1774859027        7.0015600112        6.1916488151
  H         7.1777135421        5.3331122674        6.7714419336
       8
 i =      22, E =      -14.9529864866
  C         6.7689400281        5.9999502355        5.9999721289
  C         5.2310421164        5.9995536059        5.9997823564
  H         4.8223272968        5.6647536011        6.9631078278
  H         4.8225836988        5.3325399927        5.2283747891
  H         4.8220764036        7.0010539186        5.8080111728
  H         7.1777762707        5.6652649805        5.0366357207
  H         7.1774762695        7.0015451438        6.1917468578
  H         7.1777052046        5.3330333671        6.7713792225
       8
 i =      23, E =      -14.9529880789
  C         6.7689717554        5.9998854798        5.9998337793
  C         5.2310100574        5.9996091802        5.9999177181
  H         4.8223645721        5.6649127541        6.9630884503
  H         4.8225810812        5.3323850737        5.2284167682
  H         4.8221004726        7.0009928613        5.8078692999
  H         7.1777377248        5.6654396760        5.0366705061
  H         7.1774660291        7.0015504853        6.1918981583
  H         7.1776949818        5.3329124572        6.7713033591
       8
 i =      24, E =      -14.9529890800
  C         6.7689264435        5.9999672764        6.0000106488
  C         5.2310551048        5.9995280699        5.9997349351
  H         4.8223490766        5.6649775685        6.9632000218
  H         4.8226130881        5.3323716048        5.2285449663
  H         4.8220972450        7.0010042540        5.8077840320
  H         7.1777653731        5.6654931907        5.0365334386
  H         7.1774419625        7.0014831069        6.1919678518
  H         7.1776778161        5.3328614679        6.7712118178
       8
 i =       0, E =      -14.9529890752
  C         6.7689356988        6.0000344376        5.9998287295
  C         5.2310643116        5.9999853294        6.0001709100
  H         4.8226605734        5.6655432009        6.9638017927
  H         4.8221432573        5.3329287389        5.2291484238
  H         4.8222834095        7.0015642843        5.8083793592
  H         7.1773026287        5.6654519667        5.0361889940
  H         7.1777823420        7.0014475451        6.1916168058
  H         7.1778276644        5.3328287190        6.7708689210
       8
 i =       1, E =      -14.9529892020
  C         6.7690450257        5.9996861179        5.9990722240
  C         5.2309562191        6.0003302827        6.0009605555
  H         4.8227986400        5.6658250199        6.9635320938
  H         4.8220591539        5.3325033657        5.2289991887
  H         4.8223514875        7.0013717047        5.8081684381
  H         7.1771436632        5.6657982021        5.0365407672
  H         7.1778019915        7.0015870032        6.1918806551
  H         7.1778435982        5.3325820235        6.7708495737
       8
 i =       2, E =      -14.9530041539
  C         6.7688772886        6.0001660782        6.0001530131
  C         5.2311223874        5.9998234888        5.9998370733
  H         4.8226767228        5.6668196390        6.9645402077
  H         4.8222462466        5.3318703848        5.2301845558
  H         4.8223109707        7.0014375118        5.8069530161
  H         7.1773084377        5.6667047601        5.0354059639
  H         7.1777000555        7.0011540243        6.1930117623
  H         7.1777577575        5.3316889324        6.7699176509
       8
 i =       3, E =      -14.9530174756
  C         6.7690011472        5.9997791798        5.9992934690
  C         5.2309986867        6.0002121043        6.0007222875
  H         4.8228434449        5.6680406819        6.9645836954
  H         4.8221637335        5.3306445006        5.2305744687
  H         4.8224061792        7.0011006938        5.8057642536
  H         7.1771079725        5.6679950798        5.0354651974
  H         7.1777179433        7.0012105866        6.1942677524
  H         7.1777607416        5.3306643897        6.7693313879
       8
 i =       4, E =      -14.9530280060
  C         6.7689135873        6.0001165043        6.0000531803
  C         5.2310861369        5.9998637950        5.9999423209
  H         4.8227828023        5.6688229712        6.9652332989
  H         4.8223151250        5.3302060470        5.2314920431
  H         4.8224026970        7.0010544637        5.8048768477
  H         7.1772002724        5.6687149839        5.0347242874
  H         7.1776217778        7.0008164980        6.1950950911
  H         7.1776774572        5.3300473620        6.7685866471
       8
 i =       5, E =      -14.9530363316
  C         6.7689383672        5.9998312416        5.9994231895
  C         5.2310614779        6.0001449418        6.0005867320
  H         4.8228995749        5.6696002589        6.9651924771
  H         4.8222508708        5.3294373059        5.2317103601
  H         4.8224668295        7.0008071912        5.8041517071
  H         7.1770580139        5.6695431535        5.0348422119
  H         7.1776403217        7.0008564480        6.1958702811
  H         7.1776843628        5.3294253449        6.7682263815
       8
 i =       6, E =      -14.9530428561
  C         6.7688911676        6.0000686591        5.9999539092
  C         5.2311084941        5.9999049871        6.0000445885
  H         4.8228601463        5.6700964955        6.9656017574
  H         4.8223577632        5.3291983476        5.2323218720
  H         4.8224678727        7.0007619287        5.8036050003
  H         7.1771201650        5.6699955481        5.0343675770
  H         7.1775698042        7.0005687518        6.1963745854
  H         7.1776243882        5.3290622422        6.7677344842
       8
 i =       7, E =      -14.9530451236
  C         6.7688905663        5.9999887708        5.9997779372
  C         5.2311091866        5.9999829452        6.0002238525
  H         4.8228906529        5.6702901449        6.9655811939
  H         4.8223379915        5.3290052484        5.2323662118
  H         4.8224836325        7.0006975140        5.8034298683
  H         7.1770824617        5.6702032538        5.0344101717
  H         7.1775770035        7.0005844544        6.1965638570
  H         7.1776282912        5.3289097634        6.7676508086
       8
 i =       8, E =      -14.9530718596
  C         6.7688260594        5.9996251649        5.9989872858
  C         5.2311743227        6.0003280441        6.0010280716
  H         4.8231186516        5.6729607549        6.9660531413
  H         4.8223261754        5.3267902400        5.2338100286
  H         4.8226379454        6.9999974028        5.8008686550
  H         7.1768239624        5.6729355669        5.0340377338
  H         7.1775265627        7.0002417134        6.1991885168
  H         7.1775659834        5.3268757659        6.7660320798
       8
 i =       9, E =      -14.9530737463
  C         6.7687941157        5.9999634457        5.9997361325
  C         5.2312059265        5.9999979289        6.0002685924
  H         4.8230198994        5.6728104178        6.9663499366
  H         4.8224352072        5.3271147054        5.2340797466
  H         4.8225999496        7.0001184464        5.8009588466
  H         7.1769548309        5.6727241579        5.0336475606
  H         7.1774671693        7.0000231803        6.1990374750
  H         7.1775226020        5.3270269481        6.7659277733
       8
 i =      10, E =      -14.9530674607
  C         6.7687864534        5.9998795816        5.9994975024
  C         5.2312126603        6.0000976346        6.0004947378
  H         4.8230102874        5.6723557593        6.9660746812
  H         4.8223569367        5.3274861128        5.2336437700
  H         4.8225711885        7.0002118382        5.8014989000
  H         7.1769531233        5.6722860570        5.0339559746
  H         7.1775245600        7.0002093797        6.1985164998
  H         7.1775843811        5.3274395215        6.7663250875
       8
 i =      11, E =      -14.9530673170
  C         6.7688026895        5.9999909117        5.9997462931
  C         5.2311970240        6.0000151227        6.0002572059
  H         4.8229808183        5.6723014634        6.9661686802
  H         4.8223888669        5.3275892881        5.2337198317
  H         4.8225645543        7.0002446087        5.8015357987
  H         7.1769952685        5.6722114169        5.0338268689
  H         7.1775020639        7.0001413897        6.1984608744
  H         7.1775683345        5.3274969708        6.7662913455
       8
 i =      12, E =      -14.9530670118
  C         6.7688053034        5.9999838000        5.9997227142
  C         5.2311945519        6.0000261678        6.0002805396
  H         4.8229821738        5.6722788291        6.9661518770
  H         4.8223829666        5.3276039511        5.2336919274
  H         4.8225636461        7.0002519572        5.8015629569
  H         7.1769929125        5.6721903653        5.0338466343
  H         7.1775057193        7.0001576847        6.1984353868
  H         7.1775723442        5.3275163086        6.7663149296
       8
 i =      13, E =      -14.9530678077
  C         6.7688024411        5.9999948709        5.9997623960
  C         5.2311973686        6.0000071156        6.0002424163
  H         4.8229808951        5.6723397478        6.9661884958
  H         4.8223939566        5.3275576059        5.2337535583
  H         4.8225663107        7.0002338037        5.8014917412
  H         7.1769960517        5.6722486039        5.0338045111
  H         7.1774983228        7.0001245678        6.1985037380
  H         7.1775642839        5.3274626491        6.7662599077
       8
 i =      14, E =      -14.9530671931
  C         6.7688053710        5.9999521643        5.9996484224
  C         5.2311946350        6.0000523779        6.0003522934
  H         4.8229905453        5.6723021933        6.9661299329
  H         4.8223722477        5.3275652174        5.2336717456
  H         4.8225653626        7.0002452028        5.8015434187
  H         7.1769808849        5.6722196437        5.0338787858
  H         7.1775126054        7.0001805459        6.1984604352
  H         7.1775779567        5.3274917847        6.7663219965
       8
 i =      15, E =      -14.9530569616
  C         6.7688420317        6.0003619531        6.0004995708
  C         5.2311552155        5.9997892415        5.9995237537
  H         4.8228687807        5.6716432318        6.9662799195
  H         4.8224545999        5.3283696445        5.2336213452
  H         4.8225195439        7.0004853619        5.8022023589
  H         7.1771444500        5.6714894655        5.0336149385
  H         7.1774606062        7.0000721350        6.1977379517
  H         7.1775531875        5.3281315703        6.7665276761
       8
 i =      16, E =      -14.9530589521
  C         6.7688302177        6.0001414887        5.9999732529
  C         5.2311676326        5.9999827390        6.0000389090
  H         4.8229275646        5.6716377606        6.9660387123
  H         4.8223748548        5.3282535141        5.2333674618
  H         4.8225296548        7.0004503202        5.8022574722
  H         7.1770612140        5.6715249727        5.0339246945
  H         7.1775119115        7.0002491370        6.1977214491
  H         7.1775953282        5.3281173344        6.7666858032
       8
 i =      17, E =      -14.9530579539
  C         6.7688222650        6.0000052148        5.9996429897
  C         5.2311763030        6.0001028422        6.0003584750
  H         4.8229621203        5.6715631246        6.9658609436
  H         4.8223230680        5.3282463808        5.2331630295
  H         4.8225327904        7.0004437902        5.8023698677
  H         7.1770104983        5.6714761951        5.0341473786
  H         7.1775469003        7.0003740716        6.1976331747
  H         7.1776243858        5.3281720503        6.7668323862
       8
 i =      18, E =      -14.9530473933
  C         6.7688235387        6.0002123955        6.0000721870
  C         5.2311767389        5.9999682564        5.9999318045
  H         4.8228875309        5.6707107172        6.9657392374
  H         4.8223529464        5.3291011023        5.2327967964
  H         4.8224889945        7.0006542013        5.8032577986
  H         7.1771028199        5.6705891374        5.0342173138
  H         7.1775402182        7.0004081407        6.1967129961
  H         7.1776252727        5.3289385114        6.7672813855
       8
 i =      19, E =      -14.9530473532
  C         6.7688272912        6.0000435668        5.9996538893
  C         5.2311725208        6.0001287866        6.0003493609
  H         4.8229345553        5.6706907810        6.9655481157
  H         4.8222857355        5.3290116109        5.2325759902
  H         4.8224964187        7.0006367700        5.8033150798
  H         7.1770386002        5.6706001307        5.0344579693
  H         7.1775816329        7.0005587553        6.1966858407
  H         7.1776612986        5.3289316428        6.7674235243
       8
 i =      20, E =      -14.9530403636
  C         6.7688722806        6.0001807040        5.9999229551
  C         5.2311257579        6.0000458074        6.0000735253
  H         4.8228812201        5.6700896914        6.9655120178
  H         4.8222962849        5.3295605305        5.2322848186
  H         4.8224567542        7.0008431707        5.8039165648
  H         7.1771018574        5.6699772477        5.0344645177
  H         7.1775911174        7.0006514277        6.1960648533
  H         7.1776726327        5.3294202961        6.7677716965
       8
 i =      21, E =      -14.9530399446
  C         6.7688670165        6.0001019653        5.9997229585
  C         5.2311316356        6.0001270338        6.0002784267
  H         4.8229058000        5.6700565452        6.9653991208
  H         4.8222637784        5.3295466270        5.2321647833
  H         4.8224618822        7.0008288836        5.8039756812
  H         7.1770699058        5.6699582719        5.0345989173
  H         7.1776092047        7.0007176955        6.1960198757
  H         7.1776886608        5.3294481052        6.7678512026
       8
 i =      22, E =      -14.9530367714
  C         6.7688529357        6.0000445981        5.9995557378
  C         5.2311470614        6.0002029752        6.0004501870
  H         4.8229247749        5.6698287097        6.9652150281
  H         4.8222310176        5.3297254742        5.2319347078
  H         4.8224607652        7.0008492040        5.8042505758
  H         7.1770444652        5.6697414990        5.0348012306
  H         7.1776297630        7.0008038118        6.1957567243
  H         7.1777070010        5.3296611698        6.7680471350
       8
 i =      23, E =      -14.9530339843
  C         6.7688592351        6.0002028782        5.9999208691
  C         5.2311396768        6.0000680206        6.0000761826
  H         4.8228732878        5.6695746376        6.9653018116
  H         4.8222783949        5.3300339444        5.2319427120
  H         4.8224397012        7.0009415389        5.8044870477
  H         7.1771093102        5.6694601578        5.0346748702
  H         7.1776090328        7.0007473080        6.1954944940
  H         7.1776892892        5.3298921399        6.7681138576
       8
 i =      24, E =      -14.9530333424
  C         6.7688607381        6.0000879845        5.9996288795
  C         5.2311385435        6.0001858190        6.0003748326
  H         4.8229072008        5.6695304017        6.9651489419
  H         4.8222294102        5.3300006436        5.2317653681
  H         4.8224452741        7.0009299125        5.8045631853
  H         7.1770647110        5.6694365882        5.0348591115
  H         7.1776374469        7.0008531690        6.1954389375
  H         7.1777145884        5.3299194800        6.7682324204
       8
 i =      25, E =      -14.9530287008
  C         6.7688693554        6.0002020448        5.9998662268
  C         5.2311297283        6.0001086567        6.0001326634
  H         4.8228680195        5.6691338173        6.9651237224
  H         4.8222501191        5.3304031771        5.2316142394
  H         4.8224215860        7.0010460583        5.8049664654
  H         7.1771123077        5.6690214756        5.0348581653
  H         7.1776340919        7.0008703723        6.1950186273
  H         7.1777122833        5.3302715706        6.7684318431
       8
 i =      26, E =      -14.9530282805
  C         6.7688698607        6.0001413365        5.9997094411
  C         5.2311292657        6.0001721960        6.0002924808
  H         4.8228859424        5.6691015051        6.9650391069
  H         4.8222235387        5.3303929398        5.2315138204
  H         4.8224241874        7.0010419786        5.8050167548
  H         7.1770885812        5.6690002198        5.0349598421
  H         7.1776497315        7.0009292027        6.1949793553
  H         7.1777263701        5.3302934559        6.7685011424
       8
 i =      27, E =      -14.9530237817
  C         6.7688763732        6.0000632635        5.9994708393
  C         5.2311226845        6.0002818576        6.0005356935
  H         4.8229062203        5.6687713851        6.9648131979
  H         4.8221707344        5.3306218209        5.2311711921
  H         4.8224156276        7.0011052991        5.8053970907
  H         7.1770593409        5.6686855875        5.0352114724
  H         7.1776864695        7.0010865513        6.1946156530