         0        -14.955972284        -14.950860428        -14.950862361        -14.951838770        -14.948868554        -14.947575892        -14.951979985        -14.955953570          1.148401973          0.574200986          0.574200986          0.673430365          0.673430365          0.673430365          0.673430365
         1        -14.955972284        -14.953424807        -14.952203598        -14.951836807        -14.951407301        -14.952232632        -14.954539124        -14.955953570          1.102227518          0.624978883          0.586512386          0.671576351          0.674533724          0.674482415          0.680360242
         2        -14.955972284        -14.954143941        -14.952529167        -14.951832495        -14.952014368        -14.953268263        -14.955143593        -14.955953570          1.050649279          0.673790402          0.601194540          0.664734390          0.674645848          0.674033946          0.681569236
         3        -14.955972284        -14.954375110        -14.952622079        -14.951830294        -14.952179115        -14.953627959        -14.955317672        -14.955953570          1.015243253          0.707158696          0.615689919          0.659834340          0.676440783          0.678079309          0.684240526
         4        -14.955972284        -14.954511489        -14.952665973        -14.951830007        -14.952210355        -14.953668932        -14.955351412        -14.955953570          0.973263329          0.737485860          0.629768219          0.661316955          0.674757865          0.678182522          0.683882972
         5        -14.955972284        -14.954591878        -14.952699832        -14.951829764        -14.952231611        -14.953727605        -14.955376107        -14.955953570          0.947205004          0.753025763          0.643249835          0.662105157          0.674680787          0.679818147          0.684580473
         6        -14.955972284        -14.954667470        -14.952736906        -14.951829066        -14.952235084        -14.953729319        -14.955380925        -14.955953570          0.918529911          0.765152291          0.660461868          0.662888179          0.673257785          0.678720532          0.683600120
         7        -14.955972284        -14.954693010        -14.952751426        -14.951829427        -14.952247903        -14.953768197        -14.955394808        -14.955953570          0.911817664          0.767489041          0.665558846          0.663008975          0.673244148          0.679011042          0.683663901
         8        -14.955972284        -14.954794346        -14.952821008        -14.951827790        -14.952235445        -14.953713453        -14.955382183        -14.955953570          0.865819482          0.781701163          0.701223878          0.663846457          0.672435291          0.679766448          0.683197769
         9        -14.955972284        -14.954827938        -14.952843894        -14.951828161        -14.952258293        -14.953786236        -14.955406415        -14.955953570          0.858478014          0.781688947          0.708379078          0.663982595          0.671914203          0.678354911          0.682478456
        10        -14.955972284        -14.954879887        -14.952895260        -14.951826145        -14.952255782        -14.953770227        -14.955403524        -14.955953570          0.834772577          0.782890679          0.733789145          0.664072535          0.671720194          0.678219630          0.681719454
        11        -14.955972284        -14.954895422        -14.952907546        -14.951826969        -14.952264516        -14.953796727        -14.955411917        -14.955953570          0.830348488          0.782966823          0.738348733          0.664101224          0.671415019          0.677412843          0.681199195
        12        -14.955972284        -14.954909063        -14.952920756        -14.951826756        -14.952266012        -14.953798855        -14.955412958        -14.955953570          0.824538930          0.783265167          0.744655981          0.664107749          0.671292118          0.677179575          0.680872042
        13        -14.955972284        -14.954937147        -14.952948389        -14.951825187        -14.952267547        -14.953798031        -14.955413675        -14.955953570          0.811811120          0.784165979          0.759110696          0.664022551          0.671043354          0.676830260          0.680009940
        14        -14.955972284        -14.954941680        -14.952952322        -14.951825778        -14.952270428        -14.953804776        -14.955415791        -14.955953570          0.810434747          0.784244070          0.760634776          0.664010985          0.670920655          0.676552461          0.679787157
        15        -14.955972284        -14.954951588        -14.952961700        -14.951825254        -14.952272146        -14.953806697        -14.955416680        -14.955953570          0.805938212          0.784621916          0.765846353          0.663949771          0.670632469          0.675990041          0.679181200
        16        -14.955972284        -14.954956668        -14.952966342        -14.951825065        -14.952273627        -14.953809237        -14.955417632        -14.955953570          0.803865581          0.784913612          0.768468113          0.663897110          0.670568755          0.675918306          0.678963827
        17        -14.955972284        -14.954963599        -14.952972659        -14.951824553        -14.952275287        -14.953811317        -14.955418513        -14.955953570          0.800708722          0.785289093          0.772341752          0.663818350          0.670310616          0.675447992          0.678432656
        18        -14.955972284        -14.954967080        -14.952975766        -14.951824416        -14.952276584        -14.953813109        -14.955419200        -14.955953570          0.799268647          0.785546565          0.774270678          0.663761156          0.670220015          0.675327530          0.678207511
        19        -14.955972284        -14.954971878        -14.952980056        -14.951824105        -14.952278136        -14.953815036        -14.955419974        -14.955953570          0.797148026          0.785879192          0.777025835          0.663684705          0.670039596          0.675029906          0.677822693
        20        -14.955972284        -14.954976584        -14.952983942        -14.951823558        -14.952280003        -14.953817376        -14.955420910        -14.955953570          0.794985943          0.786314747          0.780024365          0.663568014          0.669761930          0.674567249          0.677282178
        21        -14.955972284        -14.954978359        -14.952985361        -14.951823462        -14.952281100        -14.953818709        -14.955421412        -14.955953570          0.794264120          0.786529596          0.781156593          0.663508113          0.669664387          0.674434873          0.677082422
        22        -14.955972284        -14.954979855        -14.952986487        -14.951823278        -14.952281984        -14.953819767        -14.955421825        -14.955953570          0.793600959          0.786726042          0.782196831          0.663450336          0.669552703          0.674265243          0.676869425
        23        -14.955972284        -14.954982137        -14.952988079        -14.951822926        -14.952283503        -14.953821616        -14.955422539        -14.955953570          0.792564465          0.787064859          0.783884617          0.663345259          0.669339605          0.673932765          0.676478967
        24        -14.955972284        -14.954983775        -14.952989080        -14.951822617        -14.952284848        -14.953823240        -14.955423167        -14.955953570          0.791841860          0.787379853          0.785212024          0.663245088          0.669167241          0.673688784          0.676162371
         0        -14.955972284        -14.954983640        -14.952989075        -14.951822479        -14.952284212        -14.953823175        -14.955422773        -14.955953573          0.791836866          0.787376072          0.785197653          0.663239378          0.669108134          0.673655221          0.676144912
         1        -14.955972284        -14.954986568        -14.952989202        -14.951843421        -14.952285533        -14.953826700        -14.955424145        -14.955953573          0.789795022          0.788370330          0.731770847          0.720538363          0.668486023          0.672663849          0.675002925
         2        -14.955972284        -14.954987774        -14.953004154        -14.951845348        -14.952278469        -14.953829029        -14.955425005        -14.955953573          0.789700960          0.782857900          0.736295963          0.716351203          0.674181235          0.672572550          0.674825282
         3        -14.955972284        -14.954989659        -14.953017476        -14.951846716        -14.952270300        -14.953828659        -14.955425538        -14.955953573          0.788873641          0.778159024          0.739438354          0.713709359          0.678943860          0.672972494          0.674532218
         4        -14.955972284        -14.954992494        -14.953028006        -14.951846420        -14.952264455        -14.953827164        -14.955425941        -14.955953573          0.787721971          0.775088694          0.744806712          0.708730096          0.682123566          0.673829323          0.674381784
         5        -14.955972284        -14.954995757        -14.953036332        -14.951845983        -14.952259849        -14.953824841        -14.955426108        -14.955953573          0.786309599          0.773098133          0.749345412          0.704598047          0.684170018          0.674793542          0.674309383
         6        -14.955972284        -14.954999124        -14.953042856        -14.951845499        -14.952256315        -14.953822156        -14.955426050        -14.955953573          0.784843061          0.771910041          0.753145514          0.701158452          0.685420860          0.675798528          0.674370426
         7        -14.955972284        -14.955000573        -14.953045124        -14.951845508        -14.952255593        -14.953821222        -14.955426010        -14.955953573          0.784276896          0.771649010          0.754414450          0.700022263          0.685691174          0.676154059          0.674431008
         8        -14.955972284        -14.955018528        -14.953071860        -14.951839640        -14.952235608        -14.953801730        -14.955423199        -14.955953573          0.775356113          0.768314765          0.773807646          0.682675217          0.689143070          0.681665488          0.675637470
         9        -14.955972284        -14.955021316        -14.953073746        -14.951841628        -14.952240033        -14.953802220        -14.955423184        -14.955953573          0.774914326          0.769104264          0.774074078          0.682469972          0.688266122          0.681775707          0.676024701
        10        -14.955972284        -14.955027677        -14.953067461        -14.951839147        -14.952244582        -14.953793448        -14.955417883        -14.955953573          0.771937728          0.774565216          0.776474701          0.680494467          0.682041098          0.682190208          0.678948975
        11        -14.955972284        -14.955027384        -14.953067317        -14.951838956        -14.952244995        -14.953793593        -14.955417504        -14.955953573          0.772125724          0.774514052          0.777024283          0.679920055          0.681936507          0.681933350          0.679183965
        12        -14.955972284        -14.955027113        -14.953067012        -14.951838732        -14.952245177        -14.953793600        -14.955417245        -14.955953573          0.772251348          0.774518858          0.777382056          0.679534677          0.681833526          0.681787967          0.679331249
        13        -14.955972284        -14.955027684        -14.953067808        -14.951839232        -14.952244713        -14.953793601        -14.955417757        -14.955953573          0.771985513          0.774447352          0.776630841          0.680356787          0.682106044          0.682067952          0.679038998
        14        -14.955972284        -14.955027056        -14.953067193        -14.951838721        -14.952245059        -14.953793596        -14.955417121        -14.955953573          0.772274510          0.774418571          0.777466386          0.679463175          0.681898653          0.681721857          0.679399075
        15        -14.955972284        -14.955020482        -14.953056962        -14.951832669        -14.952245518        -14.953791551        -14.955412374        -14.955953573          0.774336759          0.775288628          0.783489659          0.672835299          0.679403131          0.679655859          0.681664153
        16        -14.955972284        -14.955022213        -14.953058952        -14.951834291        -14.952248998        -14.953793024        -14.955413168        -14.955953573          0.774376127          0.775572640          0.783509857          0.672750481          0.679152934          0.679735080          0.681588850
        17        -14.955972284        -14.955022266        -14.953057954        -14.951834263        -14.952250151        -14.953793331        -14.955413499        -14.955953573          0.774463147          0.776049594          0.783562142          0.672588258          0.678742276          0.679834351          0.681460925
        18        -14.955972284        -14.955019910        -14.953047393        -14.951831832        -14.952254863        -14.953794550        -14.955414979        -14.955953573          0.775318388          0.779248924          0.784181357          0.671243111          0.676019834          0.680144575          0.680586929
        19        -14.955972284        -14.955019823        -14.953047353        -14.951832057        -14.952256168        -14.953795630        -14.955415199        -14.955953573          0.775576284          0.779319702          0.784401353          0.671009869          0.675976947          0.679906074          0.680560296
        20        -14.955972284        -14.955015126        -14.953040364        -14.951830049        -14.952260372        -14.953801183        -14.955415819        -14.955953573          0.777625148          0.780082592          0.786137584          0.669185454          0.675421267          0.678128044          0.680219875
        21        -14.955972284        -14.955015055        -14.953039945        -14.951830057        -14.952261182        -14.953801670        -14.955416073        -14.955953573          0.777746844          0.780253827          0.786235969          0.669099069          0.675251981          0.678098403          0.680118242
        22        -14.955972284        -14.955013824        -14.953036771        -14.951829346        -14.952263330        -14.953803272        -14.955416867        -14.955953573          0.778291933          0.780987261          0.786673461          0.668706230          0.674554280          0.677923607          0.679687218
        23        -14.955972284        -14.955012560        -14.953033984        -14.951828646        -14.952264904        -14.953804824        -14.955417425        -14.955953573          0.778794445          0.781546814          0.787075702          0.668331006          0.674099687          0.677630554          0.679363766
        24        -14.955972284        -14.955012329        -14.953033342        -14.951828603        -14.952265900        -14.953805630        -14.955417717        -14.955953573          0.778990664          0.781744034          0.787234758          0.668189273          0.673943832          0.677504050          0.679242358
        25        -14.955972284        -14.955010159        -14.953028701        -14.951827517        -14.952268965        -14.953808729        -14.955418765        -14.955953573          0.779921186          0.782668502          0.787985602          0.667523415          0.673220482          0.676897623          0.678665635
        26        -14.955972284        -14.955009995        -14.953028281        -14.951827483        -14.952269608        -14.953809276        -14.955418960        -14.955953573          0.780052671          0.782791105          0.788092205          0.667434676          0.673126590          0.676807590          0.678582610
        27        -14.955972284        -14.955007830        -14.953023782        -14.951826447        -14.952272677        -14.953812491        -14.955420036        -14.955953573          0.780984182          0.783661142          0.788845875          0.666809819          0.672463988          0.676168666          0.677990748
        28        -14.955972284        -14.955007465        -14.953022949        -14.951826324        -14.952273612        -14.953813354        -14.955420342        -14.955953573          0.781199447          0.783862690          0.789020720          0.666671971          0.672311424          0.676019244          0.677846987
        29        -14.955972284        -14.955006206        -14.953020330        -14.951825741        -14.952275464        -14.953815318        -14.955421012        -14.955953573          0.781744301          0.784372140          0.789461686          0.666326899          0.671929862          0.675640001          0.677480558
        30        -14.955972284        -14.955005710        -14.953019257        -14.951825541        -14.952276434        -14.953816277        -14.955421348        -14.955953573          0.781992364          0.784604225          0.789663023          0.666173029          0.671757019          0.675465869          0.677310334
        31        -14.955972284        -14.955005484        -14.953018768        -14.951825448        -14.952276870        -14.953816711        -14.955421497        -14.955953573          0.782104523          0.784709081          0.789753856          0.666104199          0.671679430          0.675386859          0.677232705
