 DBCSR| Multiplication driver                                               XSMM
 DBCSR| Multrec recursion limit                                              512
 DBCSR| Multiplication stack size                                           1000
 DBCSR| Maximum elements for images                                    UNLIMITED
 DBCSR| Multiplicative factor virtual images                                   1
 DBCSR| Multiplication size stacks                                             3
 DBCSR| Number of 3D layers                                               SINGLE
 DBCSR| Use MPI memory allocation                                              T
 DBCSR| Use RMA algorithm                                                      F
 DBCSR| Use Communication thread                                               T
 DBCSR| Communication thread load                                             87


  **** **** ******  **  PROGRAM STARTED AT               2019-06-18 19:50:33.952
 ***** ** ***  *** **   PROGRAM STARTED ON                                  c579
 **    ****   ******    PROGRAM STARTED BY                                vamodi
 ***** **    ** ** **   PROGRAM PROCESS ID                                  8743
  **** **  *******  **  PROGRAM STARTED IN /wrk/vamodi/BioExcel-2/Summer_school-
                                           2019/neb/ethane

 CP2K| version string:                                          CP2K version 5.1
 CP2K| source code revision number:                                    svn:18091
 CP2K| cp2kflags: libint fftw3 libxc elpa=201605 elpa_qr parallel mpi3 scalapack
 CP2K|             xsmm plumed2
 CP2K| is freely available from                            https://www.cp2k.org/
 CP2K| Program compiled at                         Thu Jun  7 15:26:22 EEST 2018
 CP2K| Program compiled on                                   taito-login4.csc.fi
 CP2K| Program compiled for                                     taito_gcc_plumed
 CP2K| Data directory path                                  /appl/chem/cp2k/data
 CP2K| Input file name                                                 input.inp

 GLOBAL| Force Environment number                                              1
 GLOBAL| Basis set file name                                        BASIS_MOLOPT
 GLOBAL| Potential file name                                           POTENTIAL
 GLOBAL| MM Potential file name                                     MM_POTENTIAL
 GLOBAL| Coordinate file name                                 ./ethane_1_opt.xyz
 GLOBAL| Method name                                                        CP2K
 GLOBAL| Project name                                             ethane_neb_aba
 GLOBAL| Preferred FFT library                                             FFTW3
 GLOBAL| Preferred diagonalization lib.                                       SL
 GLOBAL| Run type                                                           BAND
 GLOBAL| All-to-all communication in single precision                          F
 GLOBAL| FFTs using library dependent lengths                                  F
 GLOBAL| Global print level                                               MEDIUM
 GLOBAL| Total number of message passing processes                            24
 GLOBAL| Number of threads for this process                                    1
 GLOBAL| This output is from process                                           0
 GLOBAL| CPU model name :  Intel(R) Xeon(R) CPU E5-2690 v3 @ 2.60GHz

 MEMORY| system memory details [Kb]
 MEMORY|                        rank 0           min           max       average
 MEMORY| MemTotal            132170692     132170692     132170736     132170714
 MEMORY| MemFree              92915556      92915556     101877352      97396454
 MEMORY| Buffers                114616        114616        192484        153550
 MEMORY| Cached               27714440      20560988      27714440      24137714
 MEMORY| Slab                  8416460       6492220       8416460       7454340
 MEMORY| SReclaimable           429304        359580        429304        394442
 MEMORY| MemLikelyFree       121173916     121173916     122990404     122082160


 *** Fundamental physical constants (SI units) ***

 *** Literature: B. J. Mohr and B. N. Taylor,
 ***             CODATA recommended values of the fundamental physical
 ***             constants: 2006, Web Version 5.1
 ***             http://physics.nist.gov/constants

 Speed of light in vacuum [m/s]                             2.99792458000000E+08
 Magnetic constant or permeability of vacuum [N/A**2]       1.25663706143592E-06
 Electric constant or permittivity of vacuum [F/m]          8.85418781762039E-12
 Planck constant (h) [J*s]                                  6.62606896000000E-34
 Planck constant (h-bar) [J*s]                              1.05457162825177E-34
 Elementary charge [C]                                      1.60217648700000E-19
 Electron mass [kg]                                         9.10938215000000E-31
 Electron g factor [ ]                                     -2.00231930436220E+00
 Proton mass [kg]                                           1.67262163700000E-27
 Fine-structure constant                                    7.29735253760000E-03
 Rydberg constant [1/m]                                     1.09737315685270E+07
 Avogadro constant [1/mol]                                  6.02214179000000E+23
 Boltzmann constant [J/K]                                   1.38065040000000E-23
 Atomic mass unit [kg]                                      1.66053878200000E-27
 Bohr radius [m]                                            5.29177208590000E-11

 *** Conversion factors ***

 [u] -> [a.u.]                                              1.82288848426455E+03
 [Angstrom] -> [Bohr] = [a.u.]                              1.88972613288564E+00
 [a.u.] = [Bohr] -> [Angstrom]                              5.29177208590000E-01
 [a.u.] -> [s]                                              2.41888432650478E-17
 [a.u.] -> [fs]                                             2.41888432650478E-02
 [a.u.] -> [J]                                              4.35974393937059E-18
 [a.u.] -> [N]                                              8.23872205491840E-08
 [a.u.] -> [K]                                              3.15774647902944E+05
 [a.u.] -> [kJ/mol]                                         2.62549961709828E+03
 [a.u.] -> [kcal/mol]                                       6.27509468713739E+02
 [a.u.] -> [Pa]                                             2.94210107994716E+13
 [a.u.] -> [bar]                                            2.94210107994716E+08
 [a.u.] -> [atm]                                            2.90362800883016E+08
 [a.u.] -> [eV]                                             2.72113838565563E+01
 [a.u.] -> [Hz]                                             6.57968392072181E+15
 [a.u.] -> [1/cm] (wave numbers)                            2.19474631370540E+05
 [a.u./Bohr**2] -> [1/cm]                                   5.14048714338585E+03
 

 CELL_TOP| Volume [angstrom^3]:                                         1728.000
 CELL_TOP| Vector a [angstrom    12.000     0.000     0.000    |a| =      12.000
 CELL_TOP| Vector b [angstrom     0.000    12.000     0.000    |b| =      12.000
 CELL_TOP| Vector c [angstrom     0.000     0.000    12.000    |c| =      12.000
 CELL_TOP| Angle (b,c), alpha [degree]:                                   90.000
 CELL_TOP| Angle (a,c), beta  [degree]:                                   90.000
 CELL_TOP| Angle (a,b), gamma [degree]:                                   90.000
 CELL_TOP| Numerically orthorhombic:                                         YES

 GENERATE|  Preliminary Number of Bonds generated:                             0
 GENERATE|  Achieved consistency in connectivity generation.

 CELL| Volume [angstrom^3]:                                             1728.000
 CELL| Vector a [angstrom]:      12.000     0.000     0.000    |a| =      12.000
 CELL| Vector b [angstrom]:       0.000    12.000     0.000    |b| =      12.000
 CELL| Vector c [angstrom]:       0.000     0.000    12.000    |c| =      12.000
 CELL| Angle (b,c), alpha [degree]:                                       90.000
 CELL| Angle (a,c), beta  [degree]:                                       90.000
 CELL| Angle (a,b), gamma [degree]:                                       90.000
 CELL| Numerically orthorhombic:                                             YES

 CELL_REF| Volume [angstrom^3]:                                         1728.000
 CELL_REF| Vector a [angstrom    12.000     0.000     0.000    |a| =      12.000
 CELL_REF| Vector b [angstrom     0.000    12.000     0.000    |b| =      12.000
 CELL_REF| Vector c [angstrom     0.000     0.000    12.000    |c| =      12.000
 CELL_REF| Angle (b,c), alpha [degree]:                                   90.000
 CELL_REF| Angle (a,c), beta  [degree]:                                   90.000
 CELL_REF| Angle (a,b), gamma [degree]:                                   90.000
 CELL_REF| Numerically orthorhombic:                                         YES

 *******************************************************************************
 *******************************************************************************
 **                                                                           **
 **     #####                         ##              ##                      **
 **    ##   ##            ##          ##              ##                      **
 **   ##     ##                       ##            ######                    **
 **   ##     ##  ##   ##  ##   #####  ##  ##   ####   ##    #####    #####    **
 **   ##     ##  ##   ##  ##  ##      ## ##   ##      ##   ##   ##  ##   ##   **
 **   ##  ## ##  ##   ##  ##  ##      ####     ###    ##   ######   ######    **
 **    ##  ###   ##   ##  ##  ##      ## ##      ##   ##   ##       ##        **
 **     #######   #####   ##   #####  ##  ##  ####    ##    #####   ##        **
 **           ##                                                    ##        **
 **                                                                           **
 **                                                ... make the atoms dance   **
 **                                                                           **
 **            Copyright (C) by CP2K developers group (2000 - 2017)           **
 **                                                                           **
 *******************************************************************************

 DFT| Spin restricted Kohn-Sham (RKS) calculation                            RKS
 DFT| Multiplicity                                                             1
 DFT| Number of spin states                                                    1
 DFT| Charge                                                                   0
 DFT| Self-interaction correction (SIC)                                       NO
 DFT| Cutoffs: density                                              1.000000E-10
 DFT|          gradient                                             1.000000E-10
 DFT|          tau                                                  1.000000E-10
 DFT|          cutoff_smoothing_range                               0.000000E+00
 DFT| XC density smoothing                                                  NONE
 DFT| XC derivatives                                                          PW
 FUNCTIONAL| ROUTINE=NEW
 FUNCTIONAL| PBE:
 FUNCTIONAL| J.P.Perdew, K.Burke, M.Ernzerhof, Phys. Rev. Letter, vol. 77, n 18,
 FUNCTIONAL|  pp. 3865-3868, (1996){spin unpolarized}                           

 QS| Method:                                                                 GPW
 QS| Density plane wave grid type                        NON-SPHERICAL FULLSPACE
 QS| Number of grid levels:                                                    4
 QS| Density cutoff [a.u.]:                                                140.0
 QS| Multi grid cutoff [a.u.]: 1) grid level                               140.0
 QS|                           2) grid level                                46.7
 QS|                           3) grid level                                15.6
 QS|                           4) grid level                                 5.2
 QS| Grid level progression factor:                                          3.0
 QS| Relative density cutoff [a.u.]:                                        20.0
 QS| Consistent realspace mapping and integration 
 QS| Interaction thresholds: eps_pgf_orb:                                1.0E-05
 QS|                         eps_filter_matrix:                          0.0E+00
 QS|                         eps_core_charge:                            1.0E-12
 QS|                         eps_rho_gspace:                             1.0E-10
 QS|                         eps_rho_rspace:                             1.0E-10
 QS|                         eps_gvg_rspace:                             1.0E-05
 QS|                         eps_ppl:                                    1.0E-02
 QS|                         eps_ppnl:                                   1.0E-07


 ATOMIC KIND INFORMATION

  1. Atomic kind: C                                     Number of atoms:       2

     Orbital Basis Set                                           DZVP-MOLOPT-GTH

       Number of orbital shell sets:                                           1
       Number of orbital shells:                                               5
       Number of primitive Cartesian functions:                                7
       Number of Cartesian basis functions:                                   14
       Number of spherical basis functions:                                   13
       Norm type:                                                              2

       Normalised Cartesian orbitals:

                        Set   Shell   Orbital            Exponent    Coefficient

                          1       1    2s                6.132625      -0.263661
                                                         2.625196      -0.231112
                                                         1.045457       0.042712
                                                         0.478316       0.306085
                                                         0.178617       0.065483
                                                         0.075145       0.000568
                                                         0.030287       0.000417

                          1       2    3s                6.132625       0.131937
                                                         2.625196       0.414269
                                                         1.045457      -0.593590
                                                         0.478316       0.644922
                                                         0.178617       0.069203
                                                         0.075145      -0.145101
                                                         0.030287       0.008247

                          1       3    3px               6.132625       0.562677
                                                         2.625196       0.633910
                                                         1.045457       0.379157
                                                         0.478316       0.235193
                                                         0.178617       0.052379
                                                         0.075145       0.003677
                                                         0.030287       0.000105
                          1       3    3py               6.132625       0.562677
                                                         2.625196       0.633910
                                                         1.045457       0.379157
                                                         0.478316       0.235193
                                                         0.178617       0.052379
                                                         0.075145       0.003677
                                                         0.030287       0.000105
                          1       3    3pz               6.132625       0.562677
                                                         2.625196       0.633910
                                                         1.045457       0.379157
                                                         0.478316       0.235193
                                                         0.178617       0.052379
                                                         0.075145       0.003677
                                                         0.030287       0.000105

                          1       4    4px               6.132625      -0.472364
                                                         2.625196      -0.221326
                                                         1.045457      -0.481781
                                                         0.478316       0.135466
                                                         0.178617       0.072281
                                                         0.075145       0.024920
                                                         0.030287       0.002706
                          1       4    4py               6.132625      -0.472364
                                                         2.625196      -0.221326
                                                         1.045457      -0.481781
                                                         0.478316       0.135466
                                                         0.178617       0.072281
                                                         0.075145       0.024920
                                                         0.030287       0.002706
                          1       4    4pz               6.132625      -0.472364
                                                         2.625196      -0.221326
                                                         1.045457      -0.481781
                                                         0.478316       0.135466
                                                         0.178617       0.072281
                                                         0.075145       0.024920
                                                         0.030287       0.002706

                          1       5    4dx2              6.132625       0.874783
                                                         2.625196       0.375772
                                                         1.045457       0.653959
                                                         0.478316       0.191007
                                                         0.178617       0.018656
                                                         0.075145       0.003649
                                                         0.030287      -0.000011
                          1       5    4dxy              6.132625       1.515169
                                                         2.625196       0.650856
                                                         1.045457       1.132690
                                                         0.478316       0.330834
                                                         0.178617       0.032314
                                                         0.075145       0.006321
                                                         0.030287      -0.000019
                          1       5    4dxz              6.132625       1.515169
                                                         2.625196       0.650856
                                                         1.045457       1.132690
                                                         0.478316       0.330834
                                                         0.178617       0.032314
                                                         0.075145       0.006321
                                                         0.030287      -0.000019
                          1       5    4dy2              6.132625       0.874783
                                                         2.625196       0.375772
                                                         1.045457       0.653959
                                                         0.478316       0.191007
                                                         0.178617       0.018656
                                                         0.075145       0.003649
                                                         0.030287      -0.000011
                          1       5    4dyz              6.132625       1.515169
                                                         2.625196       0.650856
                                                         1.045457       1.132690
                                                         0.478316       0.330834
                                                         0.178617       0.032314
                                                         0.075145       0.006321
                                                         0.030287      -0.000019
                          1       5    4dz2              6.132625       0.874783
                                                         2.625196       0.375772
                                                         1.045457       0.653959
                                                         0.478316       0.191007
                                                         0.178617       0.018656
                                                         0.075145       0.003649
                                                         0.030287      -0.000011

     GTH Potential information for                                    GTH-PBE-q4

       Description:                       Goedecker-Teter-Hutter pseudopotential
                                           Goedecker et al., PRB 54, 1703 (1996)
                                          Hartwigsen et al., PRB 58, 3641 (1998)
                                                      Krack, TCA 114, 145 (2005)

       Gaussian exponent of the core charge distribution:               4.364419
       Electronic configuration (s p d ...):                               2   2

       Parameters of the local part of the GTH pseudopotential:

                          rloc        C1          C2          C3          C4
                        0.338471   -8.803674    1.339211

       Parameters of the non-local part of the GTH pseudopotential:

                   l      r(l)      h(i,j,l)

                   0    0.302576    9.622487
                   1    0.291507

  2. Atomic kind: H                                     Number of atoms:       6

     Orbital Basis Set                                           DZVP-MOLOPT-GTH

       Number of orbital shell sets:                                           1
       Number of orbital shells:                                               3
       Number of primitive Cartesian functions:                                7
       Number of Cartesian basis functions:                                    5
       Number of spherical basis functions:                                    5
       Norm type:                                                              2

       Normalised Cartesian orbitals:

                        Set   Shell   Orbital            Exponent    Coefficient

                          1       1    2s               11.478000       0.129129
                                                         3.700759       0.177012
                                                         1.446884       0.141285
                                                         0.716815       0.245670
                                                         0.247919       0.094768
                                                         0.066918       0.004062
                                                         0.021708      -0.000053

                          1       2    3s               11.478000      -0.079256
                                                         3.700759      -0.152992
                                                         1.446884       0.015066
                                                         0.716815      -0.331234
                                                         0.247919       0.210690
                                                         0.066918       0.058630
                                                         0.021708      -0.003429

                          1       3    3px              11.478000       0.325290
                                                         3.700759       0.187466
                                                         1.446884       0.443300
                                                         0.716815       0.267738
                                                         0.247919       0.088285
                                                         0.066918       0.019092
                                                         0.021708       0.000629
                          1       3    3py              11.478000       0.325290
                                                         3.700759       0.187466
                                                         1.446884       0.443300
                                                         0.716815       0.267738
                                                         0.247919       0.088285
                                                         0.066918       0.019092
                                                         0.021708       0.000629
                          1       3    3pz              11.478000       0.325290
                                                         3.700759       0.187466
                                                         1.446884       0.443300
                                                         0.716815       0.267738
                                                         0.247919       0.088285
                                                         0.066918       0.019092
                                                         0.021708       0.000629

     GTH Potential information for                                    GTH-PBE-q1

       Description:                       Goedecker-Teter-Hutter pseudopotential
                                           Goedecker et al., PRB 54, 1703 (1996)
                                          Hartwigsen et al., PRB 58, 3641 (1998)
                                                      Krack, TCA 114, 145 (2005)

       Gaussian exponent of the core charge distribution:              12.500000
       Electronic configuration (s p d ...):                                   1

       Parameters of the local part of the GTH pseudopotential:

                          rloc        C1          C2          C3          C4
                        0.200000   -4.178900    0.724463


 MOLECULE KIND INFORMATION


 All atoms are their own molecule, skipping detailed information


 TOTAL NUMBERS AND MAXIMUM NUMBERS

  Total number of            - Atomic kinds:                                   2
                             - Atoms:                                          8
                             - Shell sets:                                     8
                             - Shells:                                        28
                             - Primitive Cartesian functions:                 56
                             - Cartesian basis functions:                     58
                             - Spherical basis functions:                     56

  Maximum angular momentum of- Orbital basis functions:                        2
                             - Local part of the GTH pseudopotential:          2
                             - Non-local part of the GTH pseudopotential:      0


 MODULE QUICKSTEP:  ATOMIC COORDINATES IN angstrom

  Atom  Kind  Element       X           Y           Z          Z(eff)       Mass

       1     1 C    6    6.770973    6.000000    6.255347      4.00      12.0107
       2     1 C    6    5.229026    6.000000    6.255347      4.00      12.0107
       3     2 H    1    4.819345    6.000000    5.236199      1.00       1.0079
       4     2 H    1    4.818346    6.882386    6.763801      1.00       1.0079
       5     2 H    1    4.818346    5.117614    6.763801      1.00       1.0079
       6     2 H    1    7.180655    6.000000    5.236199      1.00       1.0079
       7     2 H    1    7.181654    6.882386    6.763801      1.00       1.0079
       8     2 H    1    7.181654    5.117614    6.763801      1.00       1.0079




 SCF PARAMETERS         Density guess:                                    ATOMIC
                        --------------------------------------------------------
                        max_scf:                                             300
                        max_scf_history:                                       0
                        max_diis:                                              4
                        --------------------------------------------------------
                        eps_scf:                                        1.00E-06
                        eps_scf_history:                                0.00E+00
                        eps_diis:                                       1.00E-01
                        eps_eigval:                                     1.00E-05
                        --------------------------------------------------------
                        level_shift [a.u.]:                                 0.00
                        --------------------------------------------------------
                        Mixing method:                           DIRECT_P_MIXING
                        --------------------------------------------------------
                        No outer SCF

 PW_GRID| Information for grid number                                          1
 PW_GRID| Grid distributed over                                    24 processors
 PW_GRID| Real space group dimensions                                    24    1
 PW_GRID| the grid is blocked:                                                NO
 PW_GRID| Cutoff [a.u.]                                                    140.0
 PW_GRID| spherical cutoff:                                                   NO
 PW_GRID|   Bounds   1            -62      62                Points:         125
 PW_GRID|   Bounds   2            -62      62                Points:         125
 PW_GRID|   Bounds   3            -62      62                Points:         125
 PW_GRID| Volume element (a.u.^3)  0.5970E-02     Volume (a.u.^3)     11661.1222
 PW_GRID| Grid span                                                    FULLSPACE
 PW_GRID|   Distribution                         Average         Max         Min
 PW_GRID|   G-Vectors                            81380.2       81500       81375
 PW_GRID|   G-Rays                                 651.0         652         651
 PW_GRID|   Real Space Points                    81380.2       93750       78125

 PW_GRID| Information for grid number                                          2
 PW_GRID| Grid distributed over                                    24 processors
 PW_GRID| Real space group dimensions                                    24    1
 PW_GRID| the grid is blocked:                                                NO
 PW_GRID| Cutoff [a.u.]                                                     46.7
 PW_GRID| spherical cutoff:                                                   NO
 PW_GRID|   Bounds   1            -36      35                Points:          72
 PW_GRID|   Bounds   2            -36      35                Points:          72
 PW_GRID|   Bounds   3            -36      35                Points:          72
 PW_GRID| Volume element (a.u.^3)  0.3124E-01     Volume (a.u.^3)     11661.1222
 PW_GRID| Grid span                                                    FULLSPACE
 PW_GRID|   Distribution                         Average         Max         Min
 PW_GRID|   G-Vectors                            15552.0       15768       15408
 PW_GRID|   G-Rays                                 216.0         219         214
 PW_GRID|   Real Space Points                    15552.0       15552       15552

 PW_GRID| Information for grid number                                          3
 PW_GRID| Grid distributed over                                    24 processors
 PW_GRID| Real space group dimensions                                    24    1
 PW_GRID| the grid is blocked:                                                NO
 PW_GRID| Cutoff [a.u.]                                                     15.6
 PW_GRID| spherical cutoff:                                                   NO
 PW_GRID|   Bounds   1            -22      22                Points:          45
 PW_GRID|   Bounds   2            -22      22                Points:          45
 PW_GRID|   Bounds   3            -22      22                Points:          45
 PW_GRID| Volume element (a.u.^3)  0.1280         Volume (a.u.^3)     11661.1222
 PW_GRID| Grid span                                                    FULLSPACE
 PW_GRID|   Distribution                         Average         Max         Min
 PW_GRID|   G-Vectors                             3796.9        3870        3735
 PW_GRID|   G-Rays                                  84.4          86          83
 PW_GRID|   Real Space Points                     3796.9        4050        2025

 PW_GRID| Information for grid number                                          4
 PW_GRID| Grid distributed over                                    24 processors
 PW_GRID| Real space group dimensions                                    24    1
 PW_GRID| the grid is blocked:                                                NO
 PW_GRID| Cutoff [a.u.]                                                      5.2
 PW_GRID| spherical cutoff:                                                   NO
 PW_GRID|   Bounds   1            -12      11                Points:          24
 PW_GRID|   Bounds   2            -12      11                Points:          24
 PW_GRID|   Bounds   3            -12      11                Points:          24
 PW_GRID| Volume element (a.u.^3)  0.8435         Volume (a.u.^3)     11661.1222
 PW_GRID| Grid span                                                    FULLSPACE
 PW_GRID|   Distribution                         Average         Max         Min
 PW_GRID|   G-Vectors                              576.0         648         528
 PW_GRID|   G-Rays                                  24.0          27          22
 PW_GRID|   Real Space Points                      576.0         576         576

 POISSON| Solver                                                        PERIODIC
 POISSON| Periodicity                                                        XYZ

 RS_GRID| Information for grid number                                          1
 RS_GRID|   Bounds   1            -62      62                Points:         125
 RS_GRID|   Bounds   2            -62      62                Points:         125
 RS_GRID|   Bounds   3            -62      62                Points:         125
 RS_GRID| Real space distribution over                                  4 groups
 RS_GRID| Real space distribution along direction                              2
 RS_GRID| Border size                                                         20
 RS_GRID| Real space distribution over                                  6 groups
 RS_GRID| Real space distribution along direction                              3
 RS_GRID| Border size                                                         20
 RS_GRID|   Distribution                         Average         Max         Min
 RS_GRID|   Planes                                  71.2          72          71
 RS_GRID|   Distribution                         Average         Max         Min
 RS_GRID|   Planes                                  60.8          61          60

 RS_GRID| Information for grid number                                          2
 RS_GRID|   Bounds   1            -36      35                Points:          72
 RS_GRID|   Bounds   2            -36      35                Points:          72
 RS_GRID|   Bounds   3            -36      35                Points:          72
 RS_GRID| Real space fully replicated
 RS_GRID| Group size                                                           1

 RS_GRID| Information for grid number                                          3
 RS_GRID|   Bounds   1            -22      22                Points:          45
 RS_GRID|   Bounds   2            -22      22                Points:          45
 RS_GRID|   Bounds   3            -22      22                Points:          45
 RS_GRID| Real space fully replicated
 RS_GRID| Group size                                                           1

 RS_GRID| Information for grid number                                          4
 RS_GRID|   Bounds   1            -12      11                Points:          24
 RS_GRID|   Bounds   2            -12      11                Points:          24
 RS_GRID|   Bounds   3            -12      11                Points:          24
 RS_GRID| Real space fully replicated
 RS_GRID| Group size                                                           1

 DISTRIBUTION OF THE PARTICLES (ROWS)
              Process row      Number of particles         Number of matrix rows
                        0                        2                            -1
                        1                        2                            -1
                        2                        2                            -1
                        3                        2                            -1
                      Sum                        8                            -1

 DISTRIBUTION OF THE PARTICLES (COLUMNS)
              Process col      Number of particles      Number of matrix columns
                        0                        2                            -1
                        1                        1                            -1
                        2                        1                            -1
                        3                        1                            -1
                        4                        2                            -1
                        5                        1                            -1
                      Sum                        8                            -1
 NEB| Replica_env Setup. START
 REPLICA| layout of the replica grid, number of groups                        24
 REPLICA| layout of the replica grid, size of each group                       1
 REPLICA| MPI process to grid (group,rank) correspondence:
  (   0 :    0,   0)  (   1 :    1,   0)  (   2 :    2,   0)  (   3 :    3,   0)
  (   4 :    4,   0)  (   5 :    5,   0)  (   6 :    6,   0)  (   7 :    7,   0)
  (   8 :    8,   0)  (   9 :    9,   0)  (  10 :   10,   0)  (  11 :   11,   0)
  (  12 :   12,   0)  (  13 :   13,   0)  (  14 :   14,   0)  (  15 :   15,   0)
  (  16 :   16,   0)  (  17 :   17,   0)  (  18 :   18,   0)  (  19 :   19,   0)
  (  20 :   20,   0)  (  21 :   21,   0)  (  22 :   22,   0)  (  23 :   23,   0)
 NEB| Replica_env Setup. END

 *******************************************************************************
 *******************************************************************************
 **                                                                           **
 **  ########     ###    ##    ## ########    Nudged Elastic Band Method      **
 **  ##     ##   ## ##   ###   ## ##     ##   String Method                   **
 **  ##     ##  ##   ##  ####  ## ##     ##                                   **
 **  ########  ##     ## ## ## ## ##     ##   Number of Images :            8 **
 **  ##     ## ######### ##  #### ##     ##   Number of Replicas:          24 **
 **  ##     ## ##     ## ##   ### ##     ##   Number of Procs/Rep:          1 **
 **  ########  ##     ## ##    ## ########                                    **
 **                                           T. Laino  2009 - 2015           **
 *******************************************************************************
 *******************************************************************************

 NEB| Building initial set of coordinates. START
 NEB| Building initial set of coordinates. END

 NEB| Computing Energies and Forces
 NEB| REPLICA Nr.    1- Energy and Forces
 NEB|                                     Total Energy:            -14.955972284
 NEB|    ATOM                            X                Y                Z
 NEB|      C                      -0.000158093     -0.000000000     -0.000010247           
 NEB|      C                       0.000158093      0.000000000      0.000010247           
 NEB|      H                      -0.000009893     -0.000000000      0.000090622           
 NEB|      H                      -0.000044050     -0.000068816     -0.000011881           
 NEB|      H                      -0.000044050      0.000068816     -0.000011881           
 NEB|      H                       0.000009893      0.000000000     -0.000090622           
 NEB|      H                       0.000044050      0.000068816      0.000011881           
 NEB|      H                       0.000044050     -0.000068816      0.000011881           
 NEB| REPLICA Nr.    2- Energy and Forces
 NEB|                                     Total Energy:            -14.950860428
 NEB|    ATOM                            X                Y                Z
 NEB|      C                      -0.017401756      0.000305136      0.000607575           
 NEB|      C                       0.017395456     -0.000286907     -0.000706185           
 NEB|      H                      -0.005497343     -0.003667106      0.018838712           
 NEB|      H                      -0.005320923     -0.014022338     -0.012100941           
 NEB|      H                      -0.005435839      0.017966623     -0.006142271           
 NEB|      H                       0.005503009     -0.003723087     -0.018867887           
 NEB|      H                       0.005358392      0.017695888      0.006116327           
 NEB|      H                       0.005399058     -0.014182786      0.012257448           
 NEB| REPLICA Nr.    3- Energy and Forces
 NEB|                                     Total Energy:            -14.950862361
 NEB|    ATOM                            X                Y                Z
 NEB|      C                      -0.012294753      0.000477652      0.000913449           
 NEB|      C                       0.012285147     -0.000433403     -0.001039535           
 NEB|      H                      -0.004121187     -0.004361641      0.013535570           
 NEB|      H                      -0.003859127     -0.008950725     -0.009744979           
 NEB|      H                      -0.004062814      0.013608901     -0.002875904           
 NEB|      H                       0.004159945     -0.004480127     -0.013641366           
 NEB|      H                       0.003930011      0.013159320      0.002874080           
 NEB|      H                       0.003962859     -0.009144514      0.009980626           
 NEB| REPLICA Nr.    4- Energy and Forces
 NEB|                                     Total Energy:            -14.951838770
 NEB|    ATOM                            X                Y                Z
 NEB|      C                       0.000022557      0.000629146      0.001132652           
 NEB|      C                      -0.000036021     -0.000549647     -0.001292247           
 NEB|      H                      -0.000089808      0.000052043      0.000465213           
 NEB|      H                       0.000183483      0.000129328      0.000696313           
 NEB|      H                      -0.000073243      0.000296348     -0.000086702           
 NEB|      H                       0.000167037     -0.000162713     -0.000643310           
 NEB|      H                      -0.000092453     -0.000294281      0.000151515           
 NEB|      H                      -0.000082116     -0.000062326     -0.000420949           
 NEB| REPLICA Nr.    5- Energy and Forces
 NEB|                                     Total Energy:            -14.948868554
 NEB|    ATOM                            X                Y                Z
 NEB|      C                      -0.017241953      0.000598545      0.000994085           
 NEB|      C                       0.017210590     -0.000508644     -0.001113978           
 NEB|      H                      -0.005871807     -0.012003709      0.015453142           
 NEB|      H                      -0.005603498     -0.006957282     -0.017330378           
 NEB|      H                      -0.005902994      0.019427300      0.002770095           
 NEB|      H                       0.005987069     -0.012289636     -0.015739676           
 NEB|      H                       0.005712753      0.018897086     -0.002664267           
 NEB|      H                       0.005709527     -0.007104627      0.017633810           
 NEB| REPLICA Nr.    6- Energy and Forces
 NEB|                                     Total Energy:            -14.947575892
 NEB|    ATOM                            X                Y                Z
 NEB|      C                      -0.024779594      0.000497606      0.000717175           
 NEB|      C                       0.024723997     -0.000412456     -0.000820079           
 NEB|      H                      -0.007934270     -0.019508013      0.018397320           
 NEB|      H                      -0.007763980     -0.006018925     -0.025624020           
 NEB|      H                      -0.008007924      0.025925823      0.007857503           
 NEB|      H                       0.008059962     -0.019857190     -0.018700846           
 NEB|      H                       0.007853330      0.025567095     -0.007743588           
 NEB|      H                       0.007847012     -0.006106999      0.025918258           
 NEB| REPLICA Nr.    7- Energy and Forces
 NEB|                                     Total Energy:            -14.951979985
 NEB|    ATOM                            X                Y                Z
 NEB|      C                      -0.018162729      0.000325924      0.000375714           
 NEB|      C                       0.018114454     -0.000278923     -0.000463103           
 NEB|      H                      -0.005490685     -0.015958545      0.011178546           
 NEB|      H                      -0.005444815     -0.001602997     -0.019204254           
 NEB|      H                      -0.005561276      0.017873402      0.008379354           
 NEB|      H                       0.005581194     -0.016302812     -0.011411339           
 NEB|      H                       0.005475130      0.017733454     -0.008315250           
 NEB|      H                       0.005485604     -0.001640833      0.019462156           
 NEB| REPLICA Nr.    8- Energy and Forces
 NEB|                                     Total Energy:            -14.955953570
 NEB|    ATOM                            X                Y                Z
 NEB|      C                      -0.000000771      0.000124457      0.000066032           
 NEB|      C                       0.000011925     -0.000146747     -0.000118626           
 NEB|      H                       0.000029286      0.000146764      0.000101228           
 NEB|      H                      -0.000005089     -0.000168487     -0.000042183           
 NEB|      H                       0.000005136      0.000121865     -0.000047947           
 NEB|      H                      -0.000007404     -0.000110869     -0.000237044           
 NEB|      H                      -0.000035252      0.000164073      0.000019905           
 NEB|      H                      -0.000000769     -0.000171696      0.000257585           

 *******************************************************************************
 BAND TYPE                     =                                          CI-NEB
 BAND TYPE OPTIMIZATION        =                                              SD
 STEP NUMBER                   =                                               0
 RMSD DISTANCE DEFINITION      =                                               T
 NUMBER OF NEB REPLICA         =                                               8
 DISTANCES REP =        1.148402        0.574201        0.574201        0.673430
                        0.673430        0.673430        0.673430
 ENERGIES [au] =      -14.955972      -14.950860      -14.950862      -14.951839
                      -14.948869      -14.947576      -14.951980      -14.955954
 BAND TOTAL ENERGY [au]        =                             -119.60220255058390
 *******************************************************************************

 NEB| Computing Energies and Forces
 NEB| REPLICA Nr.    1- Energy and Forces
 NEB|                                     Total Energy:            -14.955972284
 NEB|    ATOM                            X                Y                Z
 NEB|      C                      -0.000158086     -0.000000000     -0.000010247           
 NEB|      C                       0.000158086      0.000000000      0.000010247           
 NEB|      H                      -0.000009893     -0.000000000      0.000090622           
 NEB|      H                      -0.000044050     -0.000068816     -0.000011880           
 NEB|      H                      -0.000044050      0.000068815     -0.000011880           
 NEB|      H                       0.000009893      0.000000000     -0.000090622           
 NEB|      H                       0.000044050      0.000068816      0.000011880           
 NEB|      H                       0.000044050     -0.000068815      0.000011880           
 NEB| REPLICA Nr.    2- Energy and Forces
 NEB|                                     Total Energy:            -14.952973915
 NEB|    ATOM                            X                Y                Z
 NEB|      C                       0.001246796      0.000047390      0.000024290           
 NEB|      C                      -0.001251396      0.000004120     -0.000055155           
 NEB|      H                      -0.001797647     -0.001357223      0.010054399           
 NEB|      H                      -0.001837133     -0.008100118     -0.006198092           
 NEB|      H                      -0.001813147      0.009442891     -0.003842332           
 NEB|      H                       0.001798065     -0.001387323     -0.010055236           
 NEB|      H                       0.001821048      0.009440597      0.003882917           
 NEB|      H                       0.001833235     -0.008079291      0.006190258           
 NEB| REPLICA Nr.    3- Energy and Forces
 NEB|                                     Total Energy:            -14.951956240
 NEB|    ATOM                            X                Y                Z
 NEB|      C                       0.000691422      0.000052989      0.000065127           
 NEB|      C                      -0.000698150     -0.000050919     -0.000114201           
 NEB|      H                      -0.001490407     -0.001977366      0.007457394           
 NEB|      H                      -0.001520546     -0.005474857     -0.005351864           
 NEB|      H                      -0.001517459      0.007415723     -0.001994919           
 NEB|      H                       0.001498109     -0.002027270     -0.007462172           
 NEB|      H                       0.001516146      0.007390596      0.002047403           
 NEB|      H                       0.001520744     -0.005459753      0.005353301           
 NEB| REPLICA Nr.    4- Energy and Forces
 NEB|                                     Total Energy:            -14.951839267
 NEB|    ATOM                            X                Y                Z
 NEB|      C                      -0.000084467      0.000136403      0.000205784           
 NEB|      C                       0.000075611     -0.000088986     -0.000279177           
 NEB|      H                      -0.000021846      0.000127760      0.000231847           
 NEB|      H                      -0.000019154     -0.000220549      0.000094530           
 NEB|      H                      -0.000045210      0.000182448     -0.000126599           
 NEB|      H                       0.000047902      0.000043810     -0.000256561           
 NEB|      H                       0.000020989      0.000091717      0.000194491           
 NEB|      H                       0.000025602     -0.000223962     -0.000064736           
 NEB| REPLICA Nr.    5- Energy and Forces
 NEB|                                     Total Energy:            -14.950978093
 NEB|    ATOM                            X                Y                Z
 NEB|      C                       0.001551507      0.000041333      0.000061774           
 NEB|      C                      -0.001544545     -0.000024012     -0.000109654           
 NEB|      H                      -0.002137382     -0.006645336      0.008015669           
 NEB|      H                      -0.002171942     -0.003576584     -0.009821706           
 NEB|      H                      -0.002167557      0.010283134      0.001801413           
 NEB|      H                       0.002150369     -0.006709981     -0.008044584           
 NEB|      H                       0.002156216      0.010306476     -0.001756289           
 NEB|      H                       0.002163496     -0.003577363      0.009853633           
 NEB| REPLICA Nr.    6- Energy and Forces
 NEB|                                     Total Energy:            -14.951601538
 NEB|    ATOM                            X                Y                Z
 NEB|      C                       0.002978610      0.000022580      0.000042691           
 NEB|      C                      -0.002952276      0.000015459     -0.000072354           
 NEB|      H                      -0.002521882     -0.010344021      0.008992470           
 NEB|      H                      -0.002556708     -0.002628908     -0.013523052           
 NEB|      H                      -0.002535024      0.012965954      0.004545053           
 NEB|      H                       0.002522838     -0.010408726     -0.009031269           
 NEB|      H                       0.002525158      0.013038398     -0.004537424           
 NEB|      H                       0.002537980     -0.002634196      0.013584804           
 NEB| REPLICA Nr.    7- Energy and Forces
 NEB|                                     Total Energy:            -14.954119890
 NEB|    ATOM                            X                Y                Z
 NEB|      C                       0.001191554      0.000029754      0.000041960           
 NEB|      C                      -0.001149502     -0.000001671     -0.000062397           
 NEB|      H                      -0.001811268     -0.008909872      0.005827905           
 NEB|      H                      -0.001846130     -0.000549735     -0.010670147           
 NEB|      H                      -0.001817520      0.009545592      0.004833389           
 NEB|      H                       0.001806713     -0.009004121     -0.005888721           
 NEB|      H                       0.001802382      0.009624057     -0.004855582           
 NEB|      H                       0.001822309     -0.000554662      0.010773442           
 NEB| REPLICA Nr.    8- Energy and Forces
 NEB|                                     Total Energy:            -14.955953570
 NEB|    ATOM                            X                Y                Z
 NEB|      C                      -0.000000765      0.000124458      0.000066032           
 NEB|      C                       0.000011917     -0.000146746     -0.000118626           
 NEB|      H                       0.000029286      0.000146766      0.000101228           
 NEB|      H                      -0.000005088     -0.000168487     -0.000042181           
 NEB|      H                       0.000005137      0.000121862     -0.000047948           
 NEB|      H                      -0.000007404     -0.000110869     -0.000237044           
 NEB|      H                      -0.000035252      0.000164073      0.000019905           
 NEB|      H                      -0.000000768     -0.000171696      0.000257586           

 NEB| Computing Energies and Forces
 NEB| REPLICA Nr.    1- Energy and Forces
 NEB|                                     Total Energy:            -14.955972284
 NEB|    ATOM                            X                Y                Z
 NEB|      C                      -0.000158096     -0.000000000     -0.000010247           
 NEB|      C                       0.000158096      0.000000000      0.000010247           
 NEB|      H                      -0.000009893     -0.000000000      0.000090622           
 NEB|      H                      -0.000044050     -0.000068816     -0.000011881           
 NEB|      H                      -0.000044050      0.000068816     -0.000011881           
 NEB|      H                       0.000009893      0.000000000     -0.000090622           
 NEB|      H                       0.000044050      0.000068816      0.000011881           
 NEB|      H                       0.000044050     -0.000068816      0.000011881           
 NEB| REPLICA Nr.    2- Energy and Forces
 NEB|                                     Total Energy:            -14.953425036
 NEB|    ATOM                            X                Y                Z
 NEB|      C                       0.014905367     -0.000117004     -0.000347982           
 NEB|      C                      -0.014908374      0.000191036      0.000360452           
 NEB|      H                       0.000747521      0.000130306      0.004175251           
 NEB|      H                       0.000579853     -0.004074857     -0.002266617           
 NEB|      H                       0.000686214      0.003739403     -0.002245554           
 NEB|      H                      -0.000749370      0.000120038     -0.004160747           
 NEB|      H                      -0.000628138      0.003904239      0.002326475           
 NEB|      H                      -0.000633172     -0.003939080      0.002159040           
 NEB| REPLICA Nr.    3- Energy and Forces
 NEB|                                     Total Energy:            -14.952202912
 NEB|    ATOM                            X                Y                Z
 NEB|      C                       0.010121923     -0.000226319     -0.000493335           
 NEB|      C                      -0.010126201      0.000203861      0.000496459           
 NEB|      H                       0.000334361     -0.000361148      0.003314183           
 NEB|      H                       0.000120430     -0.003085633     -0.002340795           
 NEB|      H                       0.000254110      0.003194914     -0.001394157           
 NEB|      H                      -0.000345571     -0.000362703     -0.003256087           
 NEB|      H                      -0.000172966      0.003443988      0.001480165           
 NEB|      H                      -0.000186176     -0.002932702      0.002192140           
 NEB| REPLICA Nr.    4- Energy and Forces
 NEB|                                     Total Energy:            -14.951836960
 NEB|    ATOM                            X                Y                Z
 NEB|      C                      -0.000162759     -0.000218370     -0.000458623           
 NEB|      C                       0.000157471      0.000243866      0.000451099           
 NEB|      H                       0.000026935      0.000180815      0.000064490           
 NEB|      H                      -0.000166001     -0.000472724     -0.000340472           
 NEB|      H                      -0.000024719      0.000099680     -0.000155509           
 NEB|      H                      -0.000037099      0.000193052      0.000020223           
 NEB|      H                       0.000102827      0.000369122      0.000224705           
 NEB|      H                       0.000103453     -0.000340238      0.000191862           
 NEB| REPLICA Nr.    5- Energy and Forces
 NEB|                                     Total Energy:            -14.951408674
 NEB|    ATOM                            X                Y                Z
 NEB|      C                       0.015266660     -0.000311788     -0.000531076           
 NEB|      C                      -0.015235290      0.000286528      0.000532852           
 NEB|      H                       0.000425392     -0.003067345      0.003056249           
 NEB|      H                       0.000209065     -0.001310466     -0.004763050           
 NEB|      H                       0.000395168      0.004188112      0.001138916           
 NEB|      H                      -0.000472703     -0.002990809     -0.002930597           
 NEB|      H                      -0.000299983      0.004552356     -0.001132634           
 NEB|      H                      -0.000288392     -0.001215269      0.004628298           
 NEB| REPLICA Nr.    6- Energy and Forces
 NEB|                                     Total Energy:            -14.952246013
 NEB|    ATOM                            X                Y                Z
 NEB|      C                       0.023450515     -0.000263251     -0.000366874           
 NEB|      C                      -0.023371394      0.000273850      0.000382203           
 NEB|      H                       0.001135957     -0.004416409      0.002883285           
 NEB|      H                       0.000986138     -0.000407235     -0.005621073           
 NEB|      H                       0.001154463      0.004559109      0.002403651           
 NEB|      H                      -0.001203995     -0.004311726     -0.002773041           
 NEB|      H                      -0.001085557      0.004880894     -0.002456458           
 NEB|      H                      -0.001065334     -0.000357321      0.005547488           
 NEB| REPLICA Nr.    7- Energy and Forces
 NEB|                                     Total Energy:            -14.954541524
 NEB|    ATOM                            X                Y                Z
 NEB|      C                       0.015407640     -0.000158759     -0.000170921           
 NEB|      C                      -0.015307688      0.000174513      0.000193009           
 NEB|      H                       0.000728704     -0.004214685      0.002237603           
 NEB|      H                       0.000645375      0.000172888     -0.004961044           
 NEB|      H                       0.000759888      0.003978783      0.002484131           
 NEB|      H                      -0.000790117     -0.004153273     -0.002194137           
 NEB|      H                      -0.000733859      0.004191479     -0.002557692           
 NEB|      H                      -0.000710098      0.000192176      0.004968147           
 NEB| REPLICA Nr.    8- Energy and Forces
 NEB|                                     Total Energy:            -14.955953570
 NEB|    ATOM                            X                Y                Z
 NEB|      C                      -0.000000767      0.000124458      0.000066033           
 NEB|      C                       0.000011933     -0.000146747     -0.000118626           
 NEB|      H                       0.000029284      0.000146762      0.000101230           
 NEB|      H                      -0.000005090     -0.000168487     -0.000042186           
 NEB|      H                       0.000005135      0.000121867     -0.000047945           
 NEB|      H                      -0.000007407     -0.000110867     -0.000237043           
 NEB|      H                      -0.000035254      0.000164071      0.000019906           
 NEB|      H                      -0.000000771     -0.000171696      0.000257583           

 NEB| Computing Energies and Forces
 NEB| REPLICA Nr.    1- Energy and Forces
 NEB|                                     Total Energy:            -14.955972284
 NEB|    ATOM                            X                Y                Z
 NEB|      C                      -0.000158068     -0.000000000     -0.000010247           
 NEB|      C                       0.000158068      0.000000000      0.000010247           
 NEB|      H                      -0.000009894     -0.000000000      0.000090624           
 NEB|      H                      -0.000044051     -0.000068817     -0.000011881           
 NEB|      H                      -0.000044051      0.000068817     -0.000011881           
 NEB|      H                       0.000009894      0.000000000     -0.000090624           
 NEB|      H                       0.000044051      0.000068817      0.000011881           
 NEB|      H                       0.000044051     -0.000068817      0.000011881           
 NEB| REPLICA Nr.    2- Energy and Forces
 NEB|                                     Total Energy:            -14.953424828
 NEB|    ATOM                            X                Y                Z
 NEB|      C                       0.015499707     -0.000123738     -0.000363197           
 NEB|      C                      -0.015502612      0.000198708      0.000377453           
 NEB|      H                       0.000855059      0.000191377      0.003929914           
 NEB|      H                       0.000682353     -0.003905559     -0.002102814           
 NEB|      H                       0.000791957      0.003501850     -0.002177500           
 NEB|      H                      -0.000856983      0.000181981     -0.003914825           
 NEB|      H                      -0.000731939      0.003674032      0.002260166           
 NEB|      H                      -0.000737622     -0.003765105      0.001991272           
 NEB| REPLICA Nr.    3- Energy and Forces
 NEB|                                     Total Energy:            -14.952203593
 NEB|    ATOM                            X                Y                Z
 NEB|      C                       0.010530518     -0.000237890     -0.000516461           
 NEB|      C                      -0.010534713      0.000214481      0.000521898           
 NEB|      H                       0.000411768     -0.000293247      0.003139702           
 NEB|      H                       0.000190395     -0.002984654     -0.002213787           
 NEB|      H                       0.000329379      0.003017218     -0.001368855           
 NEB|      H                      -0.000423728     -0.000292738     -0.003079081           
 NEB|      H                      -0.000244899      0.003277556      0.001456210           
 NEB|      H                      -0.000258826     -0.002826003      0.002058990           
 NEB| REPLICA Nr.    4- Energy and Forces
 NEB|                                     Total Energy:            -14.951836810
 NEB|    ATOM                            X                Y                Z
 NEB|      C                      -0.000166161     -0.000233650     -0.000487279           
 NEB|      C                       0.000161023      0.000258239      0.000482635           
 NEB|      H                       0.000029029      0.000183124      0.000057282           
 NEB|      H                      -0.000172362     -0.000483604     -0.000359263           
 NEB|      H                      -0.000023828      0.000096100     -0.000156763           
 NEB|      H                      -0.000040760      0.000199495      0.000032127           
 NEB|      H                       0.000106364      0.000381074      0.000225997           
 NEB|      H                       0.000106808     -0.000345252      0.000202933           
 NEB| REPLICA Nr.    5- Energy and Forces
 NEB|                                     Total Energy:            -14.951407344
 NEB|    ATOM                            X                Y                Z
 NEB|      C                       0.015862502     -0.000326203     -0.000555254           
 NEB|      C                      -0.015830314      0.000299251      0.000559154           
 NEB|      H                       0.000533571     -0.002918099      0.002849457           
 NEB|      H                       0.000310045     -0.001215760     -0.004551120           
 NEB|      H                       0.000503331      0.003934000      0.001110994           
 NEB|      H                      -0.000583240     -0.002835767     -0.002717679           
 NEB|      H                      -0.000403946      0.004311950     -0.001106301           
 NEB|      H                      -0.000392219     -0.001116595      0.004409683           
 NEB| REPLICA Nr.    6- Energy and Forces
 NEB|                                     Total Energy:            -14.952232927
 NEB|    ATOM                            X                Y                Z
 NEB|      C                       0.024345107     -0.000274592     -0.000383226           
 NEB|      C                      -0.024263594      0.000284123      0.000400388           
 NEB|      H                       0.001289223     -0.004172637      0.002631485           
 NEB|      H                       0.001135009     -0.000315312     -0.005294701           
 NEB|      H                       0.001308863      0.004213002      0.002315626           
 NEB|      H                      -0.001359864     -0.004061263     -0.002515526           
 NEB|      H                      -0.001236998      0.004544293     -0.002370764           
 NEB|      H                      -0.001216596     -0.000263095      0.005215713           
 NEB| REPLICA Nr.    7- Energy and Forces
 NEB|                                     Total Energy:            -14.954539188
 NEB|    ATOM                            X                Y                Z
 NEB|      C                       0.016027352     -0.000166468     -0.000179625           
 NEB|      C                      -0.015924418      0.000181742      0.000203452           
 NEB|      H                       0.000836178     -0.004019024      0.002087504           
 NEB|      H                       0.000750944      0.000203393     -0.004722659           
 NEB|      H                       0.000868821      0.003746369      0.002386453           
 NEB|      H                      -0.000899837     -0.003951320     -0.002039880           
 NEB|      H                      -0.000841196      0.003964450     -0.002462047           
 NEB|      H                      -0.000817330      0.000223731      0.004725875           
 NEB| REPLICA Nr.    8- Energy and Forces
 NEB|                                     Total Energy:            -14.955953570
 NEB|    ATOM                            X                Y                Z
 NEB|      C                      -0.000000780      0.000124459      0.000066032           
 NEB|      C                       0.000011878     -0.000146744     -0.000118625           
 NEB|      H                       0.000029294      0.000146777      0.000101221           
 NEB|      H                      -0.000005079     -0.000168488     -0.000042167           
 NEB|      H                       0.000005146      0.000121850     -0.000047955           
 NEB|      H                      -0.000007395     -0.000110878     -0.000237049           
 NEB|      H                      -0.000035243      0.000164081      0.000019900           
 NEB|      H                      -0.000000759     -0.000171696      0.000257596           

 NEB| Computing Energies and Forces
 NEB| REPLICA Nr.    1- Energy and Forces
 NEB|                                     Total Energy:            -14.955972284
 NEB|    ATOM                            X                Y                Z
 NEB|      C                      -0.000158170     -0.000000000     -0.000010247           
 NEB|      C                       0.000158170      0.000000000      0.000010247           
 NEB|      H                      -0.000009888     -0.000000000      0.000090606           
 NEB|      H                      -0.000044045     -0.000068802     -0.000011873           
 NEB|      H                      -0.000044045      0.000068802     -0.000011873           
 NEB|      H                       0.000009888      0.000000000     -0.000090606           
 NEB|      H                       0.000044045      0.000068802      0.000011873           
 NEB|      H                       0.000044045     -0.000068802      0.000011873           
 NEB| REPLICA Nr.    2- Energy and Forces
 NEB|                                     Total Energy:            -14.953424807
 NEB|    ATOM                            X                Y                Z
 NEB|      C                       0.015511581     -0.000123862     -0.000363496           
 NEB|      C                      -0.015514483      0.000198865      0.000377789           
 NEB|      H                       0.000857204      0.000192593      0.003925025           
 NEB|      H                       0.000684398     -0.003902182     -0.002099548           
 NEB|      H                       0.000794068      0.003497215     -0.002176138           
 NEB|      H                      -0.000859129      0.000183214     -0.003909926           
 NEB|      H                      -0.000734014      0.003669319      0.002258835           
 NEB|      H                      -0.000739706     -0.003761636      0.001987929           
 NEB| REPLICA Nr.    3- Energy and Forces
 NEB|                                     Total Energy:            -14.952203598
 NEB|    ATOM                            X                Y                Z
 NEB|      C                       0.010538679     -0.000238113     -0.000516911           
 NEB|      C                      -0.010542877      0.000214692      0.000522399           
 NEB|      H                       0.000413312     -0.000291894      0.003136225           
 NEB|      H                       0.000191793     -0.002982636     -0.002211250           
 NEB|      H                       0.000330882      0.003013671     -0.001368351           
 NEB|      H                      -0.000425285     -0.000291345     -0.003075557           
 NEB|      H                      -0.000246336      0.003274230      0.001455732           
 NEB|      H                      -0.000260275     -0.002823874      0.002056334           
 NEB| REPLICA Nr.    4- Energy and Forces
 NEB|                                     Total Energy:            -14.951836807
 NEB|    ATOM                            X                Y                Z
 NEB|      C                      -0.000166232     -0.000233954     -0.000487848           
 NEB|      C                       0.000161097      0.000258525      0.000483267           
 NEB|      H                       0.000029071      0.000183154      0.000057137           
 NEB|      H                      -0.000172490     -0.000483823     -0.000359640           
 NEB|      H                      -0.000023810      0.000096029     -0.000156788           
 NEB|      H                      -0.000040833      0.000199623      0.000032362           
 NEB|      H                       0.000106435      0.000381312      0.000226023           
 NEB|      H                       0.000106875     -0.000345351      0.000203153           
 NEB| REPLICA Nr.    5- Energy and Forces
 NEB|                                     Total Energy:            -14.951407301
 NEB|    ATOM                            X                Y                Z
 NEB|      C                       0.015874407     -0.000326492     -0.000555724           
 NEB|      C                      -0.015842198      0.000299491      0.000559684           
 NEB|      H                       0.000535728     -0.002915123      0.002845332           
 NEB|      H                       0.000312060     -0.001213870     -0.004546890           
 NEB|      H                       0.000505484      0.003928943      0.001110437           
 NEB|      H                      -0.000585446     -0.002832677     -0.002713435           
 NEB|      H                      -0.000406021      0.004307156     -0.001105775           
 NEB|      H                      -0.000394296     -0.001114622      0.004405314           
 NEB| REPLICA Nr.    6- Energy and Forces
 NEB|                                     Total Energy:            -14.952232632
 NEB|    ATOM                            X                Y                Z
 NEB|      C                       0.024362984     -0.000274820     -0.000383540           
 NEB|      C                      -0.024281416      0.000284317      0.000400750           
 NEB|      H                       0.001292280     -0.004167776      0.002626464           
 NEB|      H                       0.001137977     -0.000313479     -0.005288177           
 NEB|      H                       0.001311940      0.004206126      0.002313873           
 NEB|      H                      -0.001362974     -0.004056272     -0.002510394           
 NEB|      H                      -0.001240021      0.004537607     -0.002369055           
 NEB|      H                      -0.001219618     -0.000261213      0.005209061           
 NEB| REPLICA Nr.    7- Energy and Forces
 NEB|                                     Total Energy:            -14.954539124
 NEB|    ATOM                            X                Y                Z
 NEB|      C                       0.016039730     -0.000166622     -0.000179791           
 NEB|      C                      -0.015936742      0.000181880      0.000203661           
 NEB|      H                       0.000838323     -0.004015121      0.002084508           
 NEB|      H                       0.000753050      0.000204002     -0.004717906           
 NEB|      H                       0.000870993      0.003741738      0.002384507           
 NEB|      H                      -0.000902026     -0.003947294     -0.002036805           
 NEB|      H                      -0.000843338      0.003959924     -0.002460140           
 NEB|      H                      -0.000819473      0.000224362      0.004721038           
 NEB| REPLICA Nr.    8- Energy and Forces
 NEB|                                     Total Energy:            -14.955953570
 NEB|    ATOM                            X                Y                Z
 NEB|      C                      -0.000000779      0.000124457      0.000066033           
 NEB|      C                       0.000011934     -0.000146748     -0.000118626           
 NEB|      H                       0.000029286      0.000146763      0.000101229           
 NEB|      H                      -0.000005089     -0.000168487     -0.000042185           
 NEB|      H                       0.000005136      0.000121867     -0.000047945           
 NEB|      H                      -0.000007405     -0.000110870     -0.000237045           
 NEB|      H                      -0.000035252      0.000164075      0.000019904           
 NEB|      H                      -0.000000769     -0.000171696      0.000257587           

 NEB| Computing Energies and Forces
 NEB| REPLICA Nr.    1- Energy and Forces
 NEB|                                     Total Energy:            -14.955972284
 NEB|    ATOM                            X                Y                Z
 NEB|      C                      -0.000158063     -0.000000000     -0.000010247           
 NEB|      C                       0.000158063      0.000000000      0.000010247           
[...]
 NEB|      H                      -0.000030042     -0.000440501      0.000592034           
 NEB|      H                      -0.000019604     -0.000198043     -0.000684324           
 NEB|      H                      -0.000036973      0.000748361      0.000187897           
 NEB| REPLICA Nr.    8- Energy and Forces
 NEB|                                     Total Energy:            -14.955953573
 NEB|    ATOM                            X                Y                Z
 NEB|      C                      -0.000000937      0.000124990      0.000066234           
 NEB|      C                       0.000012105     -0.000147355     -0.000118828           
 NEB|      H                       0.000029263      0.000146605      0.000101381           
 NEB|      H                      -0.000005096     -0.000168497     -0.000042249           
 NEB|      H                       0.000005155      0.000122053     -0.000047739           
 NEB|      H                      -0.000007429     -0.000110748     -0.000236968           
 NEB|      H                      -0.000035246      0.000163999      0.000020127           
 NEB|      H                      -0.000000762     -0.000171710      0.000257614           

 *******************************************************************************
 BAND TYPE                     =                                          CI-NEB
 BAND TYPE OPTIMIZATION        =                                              SD
 STEP NUMBER                   =                                              30
 NUMBER OF NEB REPLICA         =                                               8
 DISTANCES REP =        0.781992        0.784604        0.789663        0.666173
                        0.671757        0.675466        0.677310
 ENERGIES [au] =      -14.955972      -14.955006      -14.953019      -14.951826
                      -14.952276      -14.953816      -14.955421      -14.955954
 BAND TOTAL ENERGY [au]        =                             -119.63240979999445
 *******************************************************************************

 NEB| Computing Energies and Forces
 NEB| REPLICA Nr.    1- Energy and Forces
 NEB|                                     Total Energy:            -14.955972284
 NEB|    ATOM                            X                Y                Z
 NEB|      C                      -0.000157876     -0.000000000     -0.000010252           
 NEB|      C                       0.000157876      0.000000000      0.000010252           
 NEB|      H                      -0.000009894     -0.000000000      0.000090578           
 NEB|      H                      -0.000044052     -0.000068781     -0.000011861           
 NEB|      H                      -0.000044052      0.000068781     -0.000011861           
 NEB|      H                       0.000009894      0.000000000     -0.000090578           
 NEB|      H                       0.000044052      0.000068781      0.000011861           
 NEB|      H                       0.000044052     -0.000068781      0.000011861           
 NEB| REPLICA Nr.    2- Energy and Forces
 NEB|                                     Total Energy:            -14.955005484
 NEB|    ATOM                            X                Y                Z
 NEB|      C                      -0.000017596     -0.000005128     -0.000021922           
 NEB|      C                       0.000017600      0.000021043      0.000022195           
 NEB|      H                       0.000029553      0.000880865      0.000208682           
 NEB|      H                       0.000039441     -0.000643960      0.000612703           
 NEB|      H                       0.000039783     -0.000224374     -0.000889829           
 NEB|      H                      -0.000030127      0.000882190     -0.000206740           
 NEB|      H                      -0.000036193     -0.000212286      0.000893868           
 NEB|      H                      -0.000042412     -0.000635399     -0.000618869           
 NEB| REPLICA Nr.    3- Energy and Forces
 NEB|                                     Total Energy:            -14.953018768
 NEB|    ATOM                            X                Y                Z
 NEB|      C                      -0.000010735     -0.000014434     -0.000039155           
 NEB|      C                       0.000010652      0.000015596      0.000039620           
 NEB|      H                       0.000026854      0.000895279      0.000393564           
 NEB|      H                       0.000013904     -0.000810297      0.000554056           
 NEB|      H                       0.000020341     -0.000095595     -0.000976244           
 NEB|      H                      -0.000028312      0.000897625     -0.000389218           
 NEB|      H                      -0.000015747     -0.000080650      0.000978795           
 NEB|      H                      -0.000017075     -0.000802966     -0.000561389           
 NEB| REPLICA Nr.    4- Energy and Forces
 NEB|                                     Total Energy:            -14.951825448
 NEB|    ATOM                            X                Y                Z
 NEB|      C                       0.000000464      0.000006248     -0.000027933           
 NEB|      C                      -0.000000427      0.000032396      0.000028132           
 NEB|      H                       0.000003158      0.000147684      0.000069439           
 NEB|      H                      -0.000007028     -0.000118051      0.000060731           
 NEB|      H                       0.000000307      0.000015057     -0.000144953           
 NEB|      H                      -0.000005142      0.000151430     -0.000064171           
 NEB|      H                       0.000003930      0.000028508      0.000145431           
 NEB|      H                       0.000004776     -0.000113918     -0.000066479           
 NEB| REPLICA Nr.    5- Energy and Forces
 NEB|                                     Total Energy:            -14.952276870
 NEB|    ATOM                            X                Y                Z
 NEB|      C                      -0.000004441      0.000017153     -0.000024654           
 NEB|      C                       0.000004416      0.000056496      0.000024455           
 NEB|      H                       0.000001592     -0.000528774     -0.000395276           
 NEB|      H                       0.000015276      0.000630177     -0.000341769           
 NEB|      H                       0.000008544     -0.000014311      0.000656534           
 NEB|      H                      -0.000005348     -0.000520795      0.000404520           
 NEB|      H                      -0.000002317      0.000005697     -0.000658736           
 NEB|      H                      -0.000017778      0.000634455      0.000334963           
 NEB| REPLICA Nr.    6- Energy and Forces
 NEB|                                     Total Energy:            -14.953816711
 NEB|    ATOM                            X                Y                Z
 NEB|      C                      -0.000019115     -0.000038382     -0.000032418           
 NEB|      C                       0.000019096      0.000000891      0.000032071           
 NEB|      H                       0.000048327     -0.000839519     -0.000681101           
 NEB|      H                       0.000018151      0.000992469     -0.000350510           
 NEB|      H                       0.000045624     -0.000227094      0.001077208           
 NEB|      H                      -0.000052580     -0.000828888      0.000690647           
 NEB|      H                      -0.000039783     -0.000208236     -0.001081885           
 NEB|      H                      -0.000019729      0.000995142      0.000345923           
 NEB| REPLICA Nr.    7- Energy and Forces
 NEB|                                     Total Energy:            -14.955421497
 NEB|    ATOM                            X                Y                Z
 NEB|      C                      -0.000013382      0.000013208     -0.000002003           
 NEB|      C                       0.000013331      0.000038559      0.000001772           
 NEB|      H                       0.000020607     -0.000467242     -0.000571875           
 NEB|      H                       0.000040679      0.000747711     -0.000173534           
 NEB|      H                       0.000025173     -0.000216813      0.000678729           
 NEB|      H                      -0.000023718     -0.000458632      0.000577719           
 NEB|      H                      -0.000021716     -0.000205693     -0.000683082           
 NEB|      H                      -0.000041163      0.000748767      0.000172145           
 NEB| REPLICA Nr.    8- Energy and Forces
 NEB|                                     Total Energy:            -14.955953573
 NEB|    ATOM                            X                Y                Z
 NEB|      C                      -0.000000591      0.000124972      0.000066212           
 NEB|      C                       0.000011722     -0.000147336     -0.000118806           
 NEB|      H                       0.000029265      0.000146676      0.000101344           
 NEB|      H                      -0.000005095     -0.000168499     -0.000042177           
 NEB|      H                       0.000005162      0.000121968     -0.000047791           
 NEB|      H                      -0.000007424     -0.000110684     -0.000236933           
 NEB|      H                      -0.000035236      0.000163952      0.000020155           
 NEB|      H                      -0.000000750     -0.000171712      0.000257569           

 *******************************************************************************
 BAND TYPE                     =                                          CI-NEB
 BAND TYPE OPTIMIZATION        =                                            DIIS
 STEP NUMBER                   =                                              31
 NUMBER OF NEB REPLICA         =                                               8
 DISTANCES REP =        0.782105        0.784709        0.789754        0.666104
                        0.671679        0.675387        0.677233
 ENERGIES [au] =      -14.955972      -14.955005      -14.953019      -14.951825
                      -14.952277      -14.953817      -14.955421      -14.955954
 BAND TOTAL ENERGY [au]        =                             -119.63240723360707
 *******************************************************************************

 -------------------------------------------------------------------------------
 -                                                                             -
 -                                DBCSR STATISTICS                             -
 -                                                                             -
 -------------------------------------------------------------------------------
 COUNTER                                    TOTAL       BLAS       SMM       ACC
 flops    13 x     5 x     7             49478520       0.0%    100.0%      0.0%
 flops     5 x    13 x     7             49478520       0.0%    100.0%      0.0%
 flops    13 x     7 x    13             62235264       0.0%    100.0%      0.0%
 flops    13 x    13 x     7             64322076       0.0%    100.0%      0.0%
 flops     5 x     5 x     7             66605700       0.0%    100.0%      0.0%
 flops    13 x     7 x     5             71809920       0.0%    100.0%      0.0%
 flops     5 x     7 x    13             71809920       0.0%    100.0%      0.0%
 flops     5 x     7 x     5             82857600       0.0%    100.0%      0.0%
 flops inhomo. stacks                           0       0.0%      0.0%      0.0%
 flops total                       518.597520E+06       0.0%    100.0%      0.0%
 flops max/rank                     26.793872E+06       0.0%    100.0%      0.0%
 matmuls inhomo. stacks                         0       0.0%      0.0%      0.0%
 matmuls total                             747096       0.0%    100.0%      0.0%
 number of processed stacks                 62552       0.0%    100.0%      0.0%
 average stack size                                     0.0      11.9       0.0
 marketing flops                   686.570752E+06
 -------------------------------------------------------------------------------
 # multiplications                            590
 max memory usage/rank             613.371904E+06
 # max total images/rank                        1
 # max 3D layers                                1
 # MPI messages exchanged                       0
 MPI messages size (bytes):
  total size                         0.000000E+00
  min size                           0.000000E+00
  max size                           0.000000E+00
  average size                       0.000000E+00
 MPI breakdown and total messages size (bytes):
             size <=      128                   0                        0
       128 < size <=     8192                   0                        0
      8192 < size <=    32768                   0                        0
     32768 < size <=   131072                   0                        0
    131072 < size <=  4194304                   0                        0
   4194304 < size <= 16777216                   0                        0
  16777216 < size                               0                        0
 -------------------------------------------------------------------------------

 MEMORY| Estimated peak process memory [MiB]                                 590

 -------------------------------------------------------------------------------
 ----                             MULTIGRID INFO                            ----
 -------------------------------------------------------------------------------
 count for grid        1:         152736          cutoff [a.u.]          140.00
 count for grid        2:          67680          cutoff [a.u.]           46.67
 count for grid        3:          43776          cutoff [a.u.]           15.56
 count for grid        4:          42240          cutoff [a.u.]            5.19
 total gridlevel count  :         306432

 -------------------------------------------------------------------------------
 -                                                                             -
 -                         MESSAGE PASSING PERFORMANCE                         -
 -                                                                             -
 -------------------------------------------------------------------------------

 ROUTINE             CALLS      AVE VOLUME [Bytes]
 MP_Group                5
 MP_Bcast               72                5113351.
 MP_Allreduce          110                   2595.
 MP_Sync                 4
 -------------------------------------------------------------------------------


 -------------------------------------------------------------------------------
 -                                                                             -
 -                           R E F E R E N C E S                               -
 -                                                                             -
 -------------------------------------------------------------------------------
 
 CP2K version 5.1, the CP2K developers group (2017).
 CP2K is freely available from https://www.cp2k.org/ .

 Schuett, Ole; Messmer, Peter; Hutter, Juerg; VandeVondele, Joost. 
 Electronic Structure Calculations on Graphics Processing Units, John Wiley & Sons, Ltd, 173-190 (2016). 
 GPU-Accelerated Sparse Matrix-Matrix Multiplication for Linear Scaling Density Functional Theory.
 http://dx.doi.org/10.1002/9781118670712.ch8


 Borstnik, U; VandeVondele, J; Weber, V; Hutter, J. 
 PARALLEL COMPUTING, 40 (5-6), 47-58 (2014). 
 Sparse matrix multiplication: The distributed block-compressed sparse
 row library.
 http://dx.doi.org/10.1016/j.parco.2014.03.012


 Hutter, J; Iannuzzi, M; Schiffmann, F; VandeVondele, J. 
 WILEY INTERDISCIPLINARY REVIEWS-COMPUTATIONAL MOLECULAR SCIENCE, 4 (1), 15-25 (2014). 
 CP2K: atomistic simulations of condensed matter systems.
 http://dx.doi.org/10.1002/wcms.1159


 VandeVondele, J; Hutter, J. 
 JOURNAL OF CHEMICAL PHYSICS, 127 (11), 114105 (2007). 
 Gaussian basis sets for accurate calculations on molecular systems in
 gas and condensed phases.
 http://dx.doi.org/10.1063/1.2770708


 Krack, M. 
 THEORETICAL CHEMISTRY ACCOUNTS, 114 (1-3), 145-152 (2005). 
 Pseudopotentials for H to Kr optimized for gradient-corrected
 exchange-correlation functionals.
 http://dx.doi.org/10.1007/s00214-005-0655-y


 VandeVondele, J; Krack, M; Mohamed, F; Parrinello, M; Chassaing, T;
 Hutter, J. COMPUTER PHYSICS COMMUNICATIONS, 167 (2), 103-128 (2005). 
 QUICKSTEP: Fast and accurate density functional calculations using a
 mixed Gaussian and plane waves approach.
 http://dx.doi.org/10.1016/j.cpc.2004.12.014


 Frigo, M; Johnson, SG. 
 PROCEEDINGS OF THE IEEE, 93 (2), 216-231 (2005). 
 The design and implementation of FFTW3.
 http://dx.doi.org/10.1109/JPROC.2004.840301


 Kolafa, J. 
 JOURNAL OF COMPUTATIONAL CHEMISTRY, 25 (3), 335-342 (2004). 
 Time-reversible always stable predictor-corrector method for molecular dynamics of polarizable molecules.
 http://dx.doi.org/10.1002/jcc.10385


 Henkelman, G; Uberuaga, BP; Jonsson, H. 
 JOURNAL OF CHEMICAL PHYSICS, 113 (22), 9901-9904 (2000). 
 A climbing image nudged elastic band method for finding saddle points
 and minimum energy paths.
 http://dx.doi.org/10.1063/1.1329672


 Henkelman, G; Jonsson, H. 
 JOURNAL OF CHEMICAL PHYSICS, 113 (22), 9978-9985 (2000). 
 Improved tangent estimate in the nudged elastic band method for finding
 minimum energy paths and saddle points.
 http://dx.doi.org/10.1063/1.1323224


 Hartwigsen, C; Goedecker, S; Hutter, J. 
 PHYSICAL REVIEW B, 58 (7), 3641-3662 (1998). 
 Relativistic separable dual-space Gaussian pseudopotentials from H to Rn.
 http://dx.doi.org/10.1103/PhysRevB.58.3641


 Lippert, G; Hutter, J; Parrinello, M. 
 MOLECULAR PHYSICS, 92 (3), 477-487 (1997). 
 A hybrid Gaussian and plane wave density functional scheme.
 http://dx.doi.org/10.1080/002689797170220


 Perdew, JP; Burke, K; Ernzerhof, M. 
 PHYSICAL REVIEW LETTERS, 77 (18), 3865-3868 (1996). 
 Generalized gradient approximation made simple.
 http://dx.doi.org/10.1103/PhysRevLett.77.3865


 Goedecker, S; Teter, M; Hutter, J. 
 PHYSICAL REVIEW B, 54 (3), 1703-1710 (1996). 
 Separable dual-space Gaussian pseudopotentials.
 http://dx.doi.org/10.1103/PhysRevB.54.1703


 -------------------------------------------------------------------------------
 -                                                                             -
 -                                T I M I N G                                  -
 -                                                                             -
 -------------------------------------------------------------------------------
 SUBROUTINE                       CALLS  ASD         SELF TIME        TOTAL TIME
                                MAXIMUM       AVERAGE  MAXIMUM  AVERAGE  MAXIMUM
 CP2K                                 1  1.0    0.008    0.019 1567.993 1567.997
 neb                                  1  2.0 1567.048 1567.085 1567.835 1567.847
 -------------------------------------------------------------------------------

 The number of warnings for this run is : 2
 
 -------------------------------------------------------------------------------
  **** **** ******  **  PROGRAM ENDED AT                 2019-06-18 21:18:44.977
 ***** ** ***  *** **   PROGRAM RAN ON                                      c579
 **    ****   ******    PROGRAM RAN BY                                    vamodi
 ***** **    ** ** **   PROGRAM PROCESS ID                                  1627
  **** **  *******  **  PROGRAM STOPPED IN /wrk/vamodi/BioExcel-2/Summer_school-
                                           2019/neb/ethane
