 DBCSR| Multiplication driver                                               XSMM
 DBCSR| Multrec recursion limit                                              512
 DBCSR| Multiplication stack size                                           1000
 DBCSR| Maximum elements for images                                    UNLIMITED
 DBCSR| Multiplicative factor virtual images                                   1
 DBCSR| Multiplication size stacks                                             3
 DBCSR| Number of 3D layers                                               SINGLE
 DBCSR| Use MPI memory allocation                                              T
 DBCSR| Use RMA algorithm                                                      F
 DBCSR| Use Communication thread                                               T
 DBCSR| Communication thread load                                             87


  **** **** ******  **  PROGRAM STARTED AT               2019-06-18 15:09:25.949
 ***** ** ***  *** **   PROGRAM STARTED ON                                  c580
 **    ****   ******    PROGRAM STARTED BY                                vamodi
 ***** **    ** ** **   PROGRAM PROCESS ID                                 11968
  **** **  *******  **  PROGRAM STARTED IN /wrk/vamodi/BioExcel-2/Summer_school-
                                           2019/pw_cutoff/cutoff/cutoff-250

 CP2K| version string:                                          CP2K version 5.1
 CP2K| source code revision number:                                    svn:18091
 CP2K| cp2kflags: libint fftw3 libxc elpa=201605 elpa_qr parallel mpi3 scalapack
 CP2K|             xsmm plumed2
 CP2K| is freely available from                            https://www.cp2k.org/
 CP2K| Program compiled at                         Thu Jun  7 15:26:22 EEST 2018
 CP2K| Program compiled on                                   taito-login4.csc.fi
 CP2K| Program compiled for                                     taito_gcc_plumed
 CP2K| Data directory path                                  /appl/chem/cp2k/data
 CP2K| Input file name                                                 input.inp

 GLOBAL| Force Environment number                                              1
 GLOBAL| Basis set file name                                        BASIS_MOLOPT
 GLOBAL| Potential file name                                           POTENTIAL
 GLOBAL| MM Potential file name                                     MM_POTENTIAL
 GLOBAL| Coordinate file name                                    init_vacuum.xyz
 GLOBAL| Method name                                                        CP2K
 GLOBAL| Project name                                                     cutoff
 GLOBAL| Preferred FFT library                                             FFTW3
 GLOBAL| Preferred diagonalization lib.                                       SL
 GLOBAL| Run type                                                         ENERGY
 GLOBAL| All-to-all communication in single precision                          F
 GLOBAL| FFTs using library dependent lengths                                  F
 GLOBAL| Global print level                                               MEDIUM
 GLOBAL| Total number of message passing processes                            12
 GLOBAL| Number of threads for this process                                    1
 GLOBAL| This output is from process                                           0
 GLOBAL| CPU model name :  Intel(R) Xeon(R) CPU E5-2690 v3 @ 2.60GHz

 MEMORY| system memory details [Kb]
 MEMORY|                        rank 0           min           max       average
 MEMORY| MemTotal            132170736     132170736     132170736     132170736
 MEMORY| MemFree             102314440     102314440     102314440     102314440
 MEMORY| Buffers                187732        187732        187732        187732
 MEMORY| Cached               18602112      18602112      18602112      18602112
 MEMORY| Slab                  5907720       5907720       5907720       5907720
 MEMORY| SReclaimable           335180        335180        335180        335180
 MEMORY| MemLikelyFree       121439464     121439464     121439464     121439464


 *** Fundamental physical constants (SI units) ***

 *** Literature: B. J. Mohr and B. N. Taylor,
 ***             CODATA recommended values of the fundamental physical
 ***             constants: 2006, Web Version 5.1
 ***             http://physics.nist.gov/constants

 Speed of light in vacuum [m/s]                             2.99792458000000E+08
 Magnetic constant or permeability of vacuum [N/A**2]       1.25663706143592E-06
 Electric constant or permittivity of vacuum [F/m]          8.85418781762039E-12
 Planck constant (h) [J*s]                                  6.62606896000000E-34
 Planck constant (h-bar) [J*s]                              1.05457162825177E-34
 Elementary charge [C]                                      1.60217648700000E-19
 Electron mass [kg]                                         9.10938215000000E-31
 Electron g factor [ ]                                     -2.00231930436220E+00
 Proton mass [kg]                                           1.67262163700000E-27
 Fine-structure constant                                    7.29735253760000E-03
 Rydberg constant [1/m]                                     1.09737315685270E+07
 Avogadro constant [1/mol]                                  6.02214179000000E+23
 Boltzmann constant [J/K]                                   1.38065040000000E-23
 Atomic mass unit [kg]                                      1.66053878200000E-27
 Bohr radius [m]                                            5.29177208590000E-11

 *** Conversion factors ***

 [u] -> [a.u.]                                              1.82288848426455E+03
 [Angstrom] -> [Bohr] = [a.u.]                              1.88972613288564E+00
 [a.u.] = [Bohr] -> [Angstrom]                              5.29177208590000E-01
 [a.u.] -> [s]                                              2.41888432650478E-17
 [a.u.] -> [fs]                                             2.41888432650478E-02
 [a.u.] -> [J]                                              4.35974393937059E-18
 [a.u.] -> [N]                                              8.23872205491840E-08
 [a.u.] -> [K]                                              3.15774647902944E+05
 [a.u.] -> [kJ/mol]                                         2.62549961709828E+03
 [a.u.] -> [kcal/mol]                                       6.27509468713739E+02
 [a.u.] -> [Pa]                                             2.94210107994716E+13
 [a.u.] -> [bar]                                            2.94210107994716E+08
 [a.u.] -> [atm]                                            2.90362800883016E+08
 [a.u.] -> [eV]                                             2.72113838565563E+01
 [a.u.] -> [Hz]                                             6.57968392072181E+15
 [a.u.] -> [1/cm] (wave numbers)                            2.19474631370540E+05
 [a.u./Bohr**2] -> [1/cm]                                   5.14048714338585E+03
 

 CELL_TOP| Volume [angstrom^3]:                                         8000.000
 CELL_TOP| Vector a [angstrom    20.000     0.000     0.000    |a| =      20.000
 CELL_TOP| Vector b [angstrom     0.000    20.000     0.000    |b| =      20.000
 CELL_TOP| Vector c [angstrom     0.000     0.000    20.000    |c| =      20.000
 CELL_TOP| Angle (b,c), alpha [degree]:                                   90.000
 CELL_TOP| Angle (a,c), beta  [degree]:                                   90.000
 CELL_TOP| Angle (a,b), gamma [degree]:                                   90.000
 CELL_TOP| Numerically orthorhombic:                                         YES

 GENERATE|  Preliminary Number of Bonds generated:                             0
 GENERATE|  Achieved consistency in connectivity generation.

 CELL| Volume [angstrom^3]:                                             8000.000
 CELL| Vector a [angstrom]:      20.000     0.000     0.000    |a| =      20.000
 CELL| Vector b [angstrom]:       0.000    20.000     0.000    |b| =      20.000
 CELL| Vector c [angstrom]:       0.000     0.000    20.000    |c| =      20.000
 CELL| Angle (b,c), alpha [degree]:                                       90.000
 CELL| Angle (a,c), beta  [degree]:                                       90.000
 CELL| Angle (a,b), gamma [degree]:                                       90.000
 CELL| Numerically orthorhombic:                                             YES

 CELL_REF| Volume [angstrom^3]:                                         8000.000
 CELL_REF| Vector a [angstrom    20.000     0.000     0.000    |a| =      20.000
 CELL_REF| Vector b [angstrom     0.000    20.000     0.000    |b| =      20.000
 CELL_REF| Vector c [angstrom     0.000     0.000    20.000    |c| =      20.000
 CELL_REF| Angle (b,c), alpha [degree]:                                   90.000
 CELL_REF| Angle (a,c), beta  [degree]:                                   90.000
 CELL_REF| Angle (a,b), gamma [degree]:                                   90.000
 CELL_REF| Numerically orthorhombic:                                         YES

 *******************************************************************************
 *******************************************************************************
 **                                                                           **
 **     #####                         ##              ##                      **
 **    ##   ##            ##          ##              ##                      **
 **   ##     ##                       ##            ######                    **
 **   ##     ##  ##   ##  ##   #####  ##  ##   ####   ##    #####    #####    **
 **   ##     ##  ##   ##  ##  ##      ## ##   ##      ##   ##   ##  ##   ##   **
 **   ##  ## ##  ##   ##  ##  ##      ####     ###    ##   ######   ######    **
 **    ##  ###   ##   ##  ##  ##      ## ##      ##   ##   ##       ##        **
 **     #######   #####   ##   #####  ##  ##  ####    ##    #####   ##        **
 **           ##                                                    ##        **
 **                                                                           **
 **                                                ... make the atoms dance   **
 **                                                                           **
 **            Copyright (C) by CP2K developers group (2000 - 2017)           **
 **                                                                           **
 *******************************************************************************

 DFT| Spin restricted Kohn-Sham (RKS) calculation                            RKS
 DFT| Multiplicity                                                             1
 DFT| Number of spin states                                                    1
 DFT| Charge                                                                  -1
 DFT| Self-interaction correction (SIC)                                       NO
 DFT| Cutoffs: density                                              1.000000E-10
 DFT|          gradient                                             1.000000E-10
 DFT|          tau                                                  1.000000E-10
 DFT|          cutoff_smoothing_range                               0.000000E+00
 DFT| XC density smoothing                                                  NONE
 DFT| XC derivatives                                                          PW
 FUNCTIONAL| ROUTINE=NEW
 FUNCTIONAL| PBE:
 FUNCTIONAL| J.P.Perdew, K.Burke, M.Ernzerhof, Phys. Rev. Letter, vol. 77, n 18,
 FUNCTIONAL|  pp. 3865-3868, (1996){spin unpolarized}                           

 QS| Method:                                                                 GPW
 QS| Density plane wave grid type                        NON-SPHERICAL FULLSPACE
 QS| Number of grid levels:                                                    4
 QS| Density cutoff [a.u.]:                                                125.0
 QS| Multi grid cutoff [a.u.]: 1) grid level                               125.0
 QS|                           2) grid level                                41.7
 QS|                           3) grid level                                13.9
 QS|                           4) grid level                                 4.6
 QS| Grid level progression factor:                                          3.0
 QS| Relative density cutoff [a.u.]:                                        30.0
 QS| Consistent realspace mapping and integration 
 QS| Interaction thresholds: eps_pgf_orb:                                1.0E-20
 QS|                         eps_filter_matrix:                          0.0E+00
 QS|                         eps_core_charge:                            1.0E-14
 QS|                         eps_rho_gspace:                             1.0E-12
 QS|                         eps_rho_rspace:                             1.0E-12
 QS|                         eps_gvg_rspace:                             1.0E-06
 QS|                         eps_ppl:                                    1.0E-02
 QS|                         eps_ppnl:                                   1.0E-08


 ATOMIC KIND INFORMATION

  1. Atomic kind: C                                     Number of atoms:      12

     Orbital Basis Set                                           DZVP-MOLOPT-GTH

       Number of orbital shell sets:                                           1
       Number of orbital shells:                                               5
       Number of primitive Cartesian functions:                                7
       Number of Cartesian basis functions:                                   14
       Number of spherical basis functions:                                   13
       Norm type:                                                              2

       Normalised Cartesian orbitals:

                        Set   Shell   Orbital            Exponent    Coefficient

                          1       1    2s                6.132625      -0.263661
                                                         2.625196      -0.231112
                                                         1.045457       0.042712
                                                         0.478316       0.306085
                                                         0.178617       0.065483
                                                         0.075145       0.000568
                                                         0.030287       0.000417

                          1       2    3s                6.132625       0.131937
                                                         2.625196       0.414269
                                                         1.045457      -0.593590
                                                         0.478316       0.644922
                                                         0.178617       0.069203
                                                         0.075145      -0.145101
                                                         0.030287       0.008247

                          1       3    3px               6.132625       0.562677
                                                         2.625196       0.633910
                                                         1.045457       0.379157
                                                         0.478316       0.235193
                                                         0.178617       0.052379
                                                         0.075145       0.003677
                                                         0.030287       0.000105
                          1       3    3py               6.132625       0.562677
                                                         2.625196       0.633910
                                                         1.045457       0.379157
                                                         0.478316       0.235193
                                                         0.178617       0.052379
                                                         0.075145       0.003677
                                                         0.030287       0.000105
                          1       3    3pz               6.132625       0.562677
                                                         2.625196       0.633910
                                                         1.045457       0.379157
                                                         0.478316       0.235193
                                                         0.178617       0.052379
                                                         0.075145       0.003677
                                                         0.030287       0.000105

                          1       4    4px               6.132625      -0.472364
                                                         2.625196      -0.221326
                                                         1.045457      -0.481781
                                                         0.478316       0.135466
                                                         0.178617       0.072281
                                                         0.075145       0.024920
                                                         0.030287       0.002706
                          1       4    4py               6.132625      -0.472364
                                                         2.625196      -0.221326
                                                         1.045457      -0.481781
                                                         0.478316       0.135466
                                                         0.178617       0.072281
                                                         0.075145       0.024920
                                                         0.030287       0.002706
                          1       4    4pz               6.132625      -0.472364
                                                         2.625196      -0.221326
                                                         1.045457      -0.481781
                                                         0.478316       0.135466
                                                         0.178617       0.072281
                                                         0.075145       0.024920
                                                         0.030287       0.002706

                          1       5    4dx2              6.132625       0.874783
                                                         2.625196       0.375772
                                                         1.045457       0.653959
                                                         0.478316       0.191007
                                                         0.178617       0.018656
                                                         0.075145       0.003649
                                                         0.030287      -0.000011
                          1       5    4dxy              6.132625       1.515169
                                                         2.625196       0.650856
                                                         1.045457       1.132690
                                                         0.478316       0.330834
                                                         0.178617       0.032314
                                                         0.075145       0.006321
                                                         0.030287      -0.000019
                          1       5    4dxz              6.132625       1.515169
                                                         2.625196       0.650856
                                                         1.045457       1.132690
                                                         0.478316       0.330834
                                                         0.178617       0.032314
                                                         0.075145       0.006321
                                                         0.030287      -0.000019
                          1       5    4dy2              6.132625       0.874783
                                                         2.625196       0.375772
                                                         1.045457       0.653959
                                                         0.478316       0.191007
                                                         0.178617       0.018656
                                                         0.075145       0.003649
                                                         0.030287      -0.000011
                          1       5    4dyz              6.132625       1.515169
                                                         2.625196       0.650856
                                                         1.045457       1.132690
                                                         0.478316       0.330834
                                                         0.178617       0.032314
                                                         0.075145       0.006321
                                                         0.030287      -0.000019
                          1       5    4dz2              6.132625       0.874783
                                                         2.625196       0.375772
                                                         1.045457       0.653959
                                                         0.478316       0.191007
                                                         0.178617       0.018656
                                                         0.075145       0.003649
                                                         0.030287      -0.000011

     GTH Potential information for                                    GTH-PBE-q4

       Description:                       Goedecker-Teter-Hutter pseudopotential
                                           Goedecker et al., PRB 54, 1703 (1996)
                                          Hartwigsen et al., PRB 58, 3641 (1998)
                                                      Krack, TCA 114, 145 (2005)

       Gaussian exponent of the core charge distribution:               4.364419
       Electronic configuration (s p d ...):                               2   2

       Parameters of the local part of the GTH pseudopotential:

                          rloc        C1          C2          C3          C4
                        0.338471   -8.803674    1.339211

       Parameters of the non-local part of the GTH pseudopotential:

                   l      r(l)      h(i,j,l)

                   0    0.302576    9.622487
                   1    0.291507

  2. Atomic kind: N                                     Number of atoms:       2

     Orbital Basis Set                                           DZVP-MOLOPT-GTH

       Number of orbital shell sets:                                           1
       Number of orbital shells:                                               5
       Number of primitive Cartesian functions:                                7
       Number of Cartesian basis functions:                                   14
       Number of spherical basis functions:                                   13
       Norm type:                                                              2

       Normalised Cartesian orbitals:

                        Set   Shell   Orbital            Exponent    Coefficient

                          1       1    2s                9.042730      -0.237404
                                                         3.882225      -0.265910
                                                         1.512880       0.102064
                                                         0.586631       0.295369
                                                         0.222851       0.088647
                                                         0.084583       0.003860
                                                         0.039194       0.000722

                          1       2    3s                9.042730       0.259152
                                                         3.882225       0.251432
                                                         1.512880      -0.043896
                                                         0.586631      -0.328079
                                                         0.222851       0.175857
                                                         0.084583       0.069169
                                                         0.039194       0.004207

                          1       3    3px               9.042730       0.822162
                                                         3.882225       0.990771
                                                         1.512880       0.665657
                                                         0.586631       0.321705
                                                         0.222851       0.063706
                                                         0.084583       0.004155
                                                         0.039194      -0.000005
                          1       3    3py               9.042730       0.822162
                                                         3.882225       0.990771
                                                         1.512880       0.665657
                                                         0.586631       0.321705
                                                         0.222851       0.063706
                                                         0.084583       0.004155
                                                         0.039194      -0.000005
                          1       3    3pz               9.042730       0.822162
                                                         3.882225       0.990771
                                                         1.512880       0.665657
                                                         0.586631       0.321705
                                                         0.222851       0.063706
                                                         0.084583       0.004155
                                                         0.039194      -0.000005

                          1       4    4px               9.042730      -0.251449
                                                         3.882225      -0.215479
                                                         1.512880      -0.200519
                                                         0.586631      -0.125283
                                                         0.222851       0.136219
                                                         0.084583       0.034362
                                                         0.039194       0.000879
                          1       4    4py               9.042730      -0.251449
                                                         3.882225      -0.215479
                                                         1.512880      -0.200519
                                                         0.586631      -0.125283
                                                         0.222851       0.136219
                                                         0.084583       0.034362
                                                         0.039194       0.000879
                          1       4    4pz               9.042730      -0.251449
                                                         3.882225      -0.215479
                                                         1.512880      -0.200519
                                                         0.586631      -0.125283
                                                         0.222851       0.136219
                                                         0.084583       0.034362
                                                         0.039194       0.000879

                          1       5    4dx2              9.042730       1.099742
                                                         3.882225       0.532064
                                                         1.512880       0.873643
                                                         0.586631       0.456348
                                                         0.222851       0.017840
                                                         0.084583      -0.000857
                                                         0.039194      -0.000086
                          1       5    4dxy              9.042730       1.904809
                                                         3.882225       0.921562
                                                         1.512880       1.513195
                                                         0.586631       0.790419
                                                         0.222851       0.030900
                                                         0.084583      -0.001484
                                                         0.039194      -0.000150
                          1       5    4dxz              9.042730       1.904809
                                                         3.882225       0.921562
                                                         1.512880       1.513195
                                                         0.586631       0.790419
                                                         0.222851       0.030900
                                                         0.084583      -0.001484
                                                         0.039194      -0.000150
                          1       5    4dy2              9.042730       1.099742
                                                         3.882225       0.532064
                                                         1.512880       0.873643
                                                         0.586631       0.456348
                                                         0.222851       0.017840
                                                         0.084583      -0.000857
                                                         0.039194      -0.000086
                          1       5    4dyz              9.042730       1.904809
                                                         3.882225       0.921562
                                                         1.512880       1.513195
                                                         0.586631       0.790419
                                                         0.222851       0.030900
                                                         0.084583      -0.001484
                                                         0.039194      -0.000150
                          1       5    4dz2              9.042730       1.099742
                                                         3.882225       0.532064
                                                         1.512880       0.873643
                                                         0.586631       0.456348
                                                         0.222851       0.017840
                                                         0.084583      -0.000857
                                                         0.039194      -0.000086

     GTH Potential information for                                    GTH-PBE-q5

       Description:                       Goedecker-Teter-Hutter pseudopotential
                                           Goedecker et al., PRB 54, 1703 (1996)
                                          Hartwigsen et al., PRB 58, 3641 (1998)
                                                      Krack, TCA 114, 145 (2005)

       Gaussian exponent of the core charge distribution:               6.208322
       Electronic configuration (s p d ...):                               2   3

       Parameters of the local part of the GTH pseudopotential:

                          rloc        C1          C2          C3          C4
                        0.283791  -12.415226    1.868096

       Parameters of the non-local part of the GTH pseudopotential:

                   l      r(l)      h(i,j,l)

                   0    0.255405   13.630263
                   1    0.245495

  3. Atomic kind: H                                     Number of atoms:      11

     Orbital Basis Set                                           DZVP-MOLOPT-GTH

       Number of orbital shell sets:                                           1
       Number of orbital shells:                                               3
       Number of primitive Cartesian functions:                                7
       Number of Cartesian basis functions:                                    5
       Number of spherical basis functions:                                    5
       Norm type:                                                              2

       Normalised Cartesian orbitals:

                        Set   Shell   Orbital            Exponent    Coefficient

                          1       1    2s               11.478000       0.129129
                                                         3.700759       0.177012
                                                         1.446884       0.141285
                                                         0.716815       0.245670
                                                         0.247919       0.094768
                                                         0.066918       0.004062
                                                         0.021708      -0.000053

                          1       2    3s               11.478000      -0.079256
                                                         3.700759      -0.152992
                                                         1.446884       0.015066
                                                         0.716815      -0.331234
                                                         0.247919       0.210690
                                                         0.066918       0.058630
                                                         0.021708      -0.003429

                          1       3    3px              11.478000       0.325290
                                                         3.700759       0.187466
                                                         1.446884       0.443300
                                                         0.716815       0.267738
                                                         0.247919       0.088285
                                                         0.066918       0.019092
                                                         0.021708       0.000629
                          1       3    3py              11.478000       0.325290
                                                         3.700759       0.187466
                                                         1.446884       0.443300
                                                         0.716815       0.267738
                                                         0.247919       0.088285
                                                         0.066918       0.019092
                                                         0.021708       0.000629
                          1       3    3pz              11.478000       0.325290
                                                         3.700759       0.187466
                                                         1.446884       0.443300
                                                         0.716815       0.267738
                                                         0.247919       0.088285
                                                         0.066918       0.019092
                                                         0.021708       0.000629

     GTH Potential information for                                    GTH-PBE-q1

       Description:                       Goedecker-Teter-Hutter pseudopotential
                                           Goedecker et al., PRB 54, 1703 (1996)
                                          Hartwigsen et al., PRB 58, 3641 (1998)
                                                      Krack, TCA 114, 145 (2005)

       Gaussian exponent of the core charge distribution:              12.500000
       Electronic configuration (s p d ...):                                   1

       Parameters of the local part of the GTH pseudopotential:

                          rloc        C1          C2          C3          C4
                        0.200000   -4.178900    0.724463

  4. Atomic kind: O                                     Number of atoms:       4

     Orbital Basis Set                                           DZVP-MOLOPT-GTH

       Number of orbital shell sets:                                           1
       Number of orbital shells:                                               5
       Number of primitive Cartesian functions:                                7
       Number of Cartesian basis functions:                                   14
       Number of spherical basis functions:                                   13
       Norm type:                                                              2

       Normalised Cartesian orbitals:

                        Set   Shell   Orbital            Exponent    Coefficient

                          1       1    2s               12.015955      -0.284499
                                                         5.108150      -0.322498
                                                         2.048398       0.148191
                                                         0.832382       0.295475
                                                         0.352316       0.150829
                                                         0.142977       0.015788
                                                         0.046761      -0.000019

                          1       2    3s               12.015955       0.725622
                                                         5.108150       0.644384
                                                         2.048398      -0.157350
                                                         0.832382      -0.853528
                                                         0.352316       0.146068
                                                         0.142977       0.153978
                                                         0.046761       0.000658

                          1       3    3px              12.015955       1.192141
                                                         5.108150       1.354170
                                                         2.048398       0.897267
                                                         0.832382       0.408839
                                                         0.352316       0.116648
                                                         0.142977       0.022184
                                                         0.046761       0.000308
                          1       3    3py              12.015955       1.192141
                                                         5.108150       1.354170
                                                         2.048398       0.897267
                                                         0.832382       0.408839
                                                         0.352316       0.116648
                                                         0.142977       0.022184
                                                         0.046761       0.000308
                          1       3    3pz              12.015955       1.192141
                                                         5.108150       1.354170
                                                         2.048398       0.897267
                                                         0.832382       0.408839
                                                         0.352316       0.116648
                                                         0.142977       0.022184
                                                         0.046761       0.000308

                          1       4    4px              12.015955      -1.062381
                                                         5.108150      -1.285791
                                                         2.048398      -0.727000
                                                         0.832382      -0.522764
                                                         0.352316       0.182681
                                                         0.142977       0.087560
                                                         0.046761       0.000981
                          1       4    4py              12.015955      -1.062381
                                                         5.108150      -1.285791
                                                         2.048398      -0.727000
                                                         0.832382      -0.522764
                                                         0.352316       0.182681
                                                         0.142977       0.087560
                                                         0.046761       0.000981
                          1       4    4pz              12.015955      -1.062381
                                                         5.108150      -1.285791
                                                         2.048398      -0.727000
                                                         0.832382      -0.522764
                                                         0.352316       0.182681
                                                         0.142977       0.087560
                                                         0.046761       0.000981

                          1       5    4dx2             12.015955       1.125955
                                                         5.108150       1.160468
                                                         2.048398       0.999335
                                                         0.832382       0.756334
                                                         0.352316       0.048604
                                                         0.142977       0.010378
                                                         0.046761      -0.000027
                          1       5    4dxy             12.015955       1.950212
                                                         5.108150       2.009990
                                                         2.048398       1.730899
                                                         0.832382       1.310009
                                                         0.352316       0.084185
                                                         0.142977       0.017974
                                                         0.046761      -0.000046
                          1       5    4dxz             12.015955       1.950212
                                                         5.108150       2.009990
                                                         2.048398       1.730899
                                                         0.832382       1.310009
                                                         0.352316       0.084185
                                                         0.142977       0.017974
                                                         0.046761      -0.000046
                          1       5    4dy2             12.015955       1.125955
                                                         5.108150       1.160468
                                                         2.048398       0.999335
                                                         0.832382       0.756334
                                                         0.352316       0.048604
                                                         0.142977       0.010378
                                                         0.046761      -0.000027
                          1       5    4dyz             12.015955       1.950212
                                                         5.108150       2.009990
                                                         2.048398       1.730899
                                                         0.832382       1.310009
                                                         0.352316       0.084185
                                                         0.142977       0.017974
                                                         0.046761      -0.000046
                          1       5    4dz2             12.015955       1.125955
                                                         5.108150       1.160468
                                                         2.048398       0.999335
                                                         0.832382       0.756334
                                                         0.352316       0.048604
                                                         0.142977       0.010378
                                                         0.046761      -0.000027

     GTH Potential information for                                    GTH-PBE-q6

       Description:                       Goedecker-Teter-Hutter pseudopotential
                                           Goedecker et al., PRB 54, 1703 (1996)
                                          Hartwigsen et al., PRB 58, 3641 (1998)
                                                      Krack, TCA 114, 145 (2005)

       Gaussian exponent of the core charge distribution:               8.360253
       Electronic configuration (s p d ...):                               2   4

       Parameters of the local part of the GTH pseudopotential:

                          rloc        C1          C2          C3          C4
                        0.244554  -16.667215    2.487311

       Parameters of the non-local part of the GTH pseudopotential:

                   l      r(l)      h(i,j,l)

                   0    0.220956   18.337458
                   1    0.211332


 MOLECULE KIND INFORMATION


 All atoms are their own molecule, skipping detailed information


 TOTAL NUMBERS AND MAXIMUM NUMBERS

  Total number of            - Atomic kinds:                                   4
                             - Atoms:                                         29
                             - Shell sets:                                    29
                             - Shells:                                       123
                             - Primitive Cartesian functions:                203
                             - Cartesian basis functions:                    307
                             - Spherical basis functions:                    289

  Maximum angular momentum of- Orbital basis functions:                        2
                             - Local part of the GTH pseudopotential:          2
                             - Non-local part of the GTH pseudopotential:      0


 MODULE QUICKSTEP:  ATOMIC COORDINATES IN angstrom

  Atom  Kind  Element       X           Y           Z          Z(eff)       Mass

       1     1 C    6    4.840577    7.214368    9.466500      4.00      12.0107
       2     2 N    7    5.994577    7.811368    9.420500      5.00      14.0067
       3     1 C    6    6.347577    8.154368   10.728500      4.00      12.0107
       4     1 C    6    7.485577    8.838368   11.122500      4.00      12.0107
       5     1 C    6    8.528577    9.411368   10.343500      4.00      12.0107
       6     1 C    6    8.499577    9.499367    8.919500      4.00      12.0107
       7     1 C    6    9.595577    9.935367    8.213500      4.00      12.0107
       8     3 H    1    9.589577    9.929368    7.122500      1.00       1.0079
       9     1 C    6   10.789577   10.307368    8.887500      4.00      12.0107
      10     4 O    8   11.832577   10.642368    8.142500      6.00      15.9994
      11     3 H    1   12.784577   10.744368    8.602500      1.00       1.0079
      12     1 C    6   10.812577   10.305368   10.307500      4.00      12.0107
      13     3 H    1   11.706577   10.662368   10.819500      1.00       1.0079
      14     1 C    6    9.705577    9.866368   11.005500      4.00      12.0107
      15     3 H    1    9.744577    9.833368   12.095500      1.00       1.0079
      16     3 H    1    7.609577    9.188368    8.378500      1.00       1.0079
      17     3 H    1    7.612577    8.901368   12.209500      1.00       1.0079
      18     1 C    6    5.306577    7.705368   11.647500      4.00      12.0107
      19     4 O    8    5.176577    7.779368   12.877500      6.00      15.9994
      20     2 N    7    4.355577    7.121368   10.776500      5.00      14.0067
      21     1 C    6   15.700577   12.537368    9.719500      4.00      12.0107
      22     3 H    1   15.681578   13.258368    8.888500      1.00       1.0079
      23     3 H    1   15.777576   13.129368   10.639500      1.00       1.0079
      24     1 C    6   14.362577   11.798368    9.718500      4.00      12.0107
      25     4 O    8   14.159577   10.921368    8.795500      6.00      15.9994
      26     4 O    8   13.496577   12.128368   10.561500      6.00      15.9994
      27     3 H    1    3.409885    6.916244   11.065795      1.00       1.0079
      28     3 H    1    4.307052    6.741633    8.641896      1.00       1.0079
      29     3 H    1   16.590115   11.921806    9.585682      1.00       1.0079




 SCF PARAMETERS         Density guess:                                    ATOMIC
                        --------------------------------------------------------
                        max_scf:                                             300
                        max_scf_history:                                       0
                        max_diis:                                              4
                        --------------------------------------------------------
                        eps_scf:                                        1.00E-06
                        eps_scf_history:                                0.00E+00
                        eps_diis:                                       1.00E-01
                        eps_eigval:                                     1.00E-05
                        --------------------------------------------------------
                        level_shift [a.u.]:                                 0.00
                        --------------------------------------------------------
                        No outer SCF

 PW_GRID| Information for grid number                                          1
 PW_GRID| Grid distributed over                                    12 processors
 PW_GRID| Real space group dimensions                                    12    1
 PW_GRID| the grid is blocked:                                                NO
 PW_GRID| Cutoff [a.u.]                                                    125.0
 PW_GRID| spherical cutoff:                                                   NO
 PW_GRID|   Bounds   1            -96      95                Points:         192
 PW_GRID|   Bounds   2            -96      95                Points:         192
 PW_GRID|   Bounds   3            -96      95                Points:         192
 PW_GRID| Volume element (a.u.^3)  0.7628E-02     Volume (a.u.^3)     53986.6767
 PW_GRID| Grid span                                                    FULLSPACE
 PW_GRID|   Distribution                         Average         Max         Min
 PW_GRID|   G-Vectors                           589824.0      589824      589824
 PW_GRID|   G-Rays                                3072.0        3072        3072
 PW_GRID|   Real Space Points                   589824.0      589824      589824

 PW_GRID| Information for grid number                                          2
 PW_GRID| Grid distributed over                                    12 processors
 PW_GRID| Real space group dimensions                                    12    1
 PW_GRID| the grid is blocked:                                                NO
 PW_GRID| Cutoff [a.u.]                                                     41.7
 PW_GRID| spherical cutoff:                                                   NO
 PW_GRID|   Bounds   1            -60      59                Points:         120
 PW_GRID|   Bounds   2            -60      59                Points:         120
 PW_GRID|   Bounds   3            -60      59                Points:         120
 PW_GRID| Volume element (a.u.^3)  0.3124E-01     Volume (a.u.^3)     53986.6767
 PW_GRID| Grid span                                                    FULLSPACE
 PW_GRID|   Distribution                         Average         Max         Min
 PW_GRID|   G-Vectors                           144000.0      144120      143880
 PW_GRID|   G-Rays                                1200.0        1201        1199
 PW_GRID|   Real Space Points                   144000.0      144000      144000

 PW_GRID| Information for grid number                                          3
 PW_GRID| Grid distributed over                                    12 processors
 PW_GRID| Real space group dimensions                                    12    1
 PW_GRID| the grid is blocked:                                                NO
 PW_GRID| Cutoff [a.u.]                                                     13.9
 PW_GRID| spherical cutoff:                                                   NO
 PW_GRID|   Bounds   1            -32      31                Points:          64
 PW_GRID|   Bounds   2            -32      31                Points:          64
 PW_GRID|   Bounds   3            -32      31                Points:          64
 PW_GRID| Volume element (a.u.^3)  0.2059         Volume (a.u.^3)     53986.6767
 PW_GRID| Grid span                                                    FULLSPACE
 PW_GRID|   Distribution                         Average         Max         Min
 PW_GRID|   G-Vectors                            21845.3       21888       21760
 PW_GRID|   G-Rays                                 341.3         342         340
 PW_GRID|   Real Space Points                    21845.3       24576       20480

 PW_GRID| Information for grid number                                          4
 PW_GRID| Grid distributed over                                    12 processors
 PW_GRID| Real space group dimensions                                    12    1
 PW_GRID| the grid is blocked:                                                NO
 PW_GRID| Cutoff [a.u.]                                                      4.6
 PW_GRID| spherical cutoff:                                                   NO
 PW_GRID|   Bounds   1            -20      19                Points:          40
 PW_GRID|   Bounds   2            -20      19                Points:          40
 PW_GRID|   Bounds   3            -20      19                Points:          40
 PW_GRID| Volume element (a.u.^3)  0.8435         Volume (a.u.^3)     53986.6767
 PW_GRID| Grid span                                                    FULLSPACE
 PW_GRID|   Distribution                         Average         Max         Min
 PW_GRID|   G-Vectors                             5333.3        5360        5280
 PW_GRID|   G-Rays                                 133.3         134         132
 PW_GRID|   Real Space Points                     5333.3        6400        4800

 POISSON| Solver                                                         WAVELET
 POISSON| Wavelet| Scaling function                                           40
 POISSON| Periodicity                                                       NONE

 RS_GRID| Information for grid number                                          1
 RS_GRID|   Bounds   1            -96      95                Points:         192
 RS_GRID|   Bounds   2            -96      95                Points:         192
 RS_GRID|   Bounds   3            -96      95                Points:         192
 RS_GRID| Real space distribution over                                  3 groups
 RS_GRID| Real space distribution along direction                              2
 RS_GRID| Border size                                                         28
 RS_GRID| Real space distribution over                                  4 groups
 RS_GRID| Real space distribution along direction                              3
 RS_GRID| Border size                                                         28
 RS_GRID|   Distribution                         Average         Max         Min
 RS_GRID|   Planes                                 120.0         120         120
 RS_GRID|   Distribution                         Average         Max         Min
 RS_GRID|   Planes                                 104.0         104         104

 RS_GRID| Information for grid number                                          2
 RS_GRID|   Bounds   1            -60      59                Points:         120
 RS_GRID|   Bounds   2            -60      59                Points:         120
 RS_GRID|   Bounds   3            -60      59                Points:         120
 RS_GRID| Real space fully replicated
 RS_GRID| Group size                                                           1

 RS_GRID| Information for grid number                                          3
 RS_GRID|   Bounds   1            -32      31                Points:          64
 RS_GRID|   Bounds   2            -32      31                Points:          64
 RS_GRID|   Bounds   3            -32      31                Points:          64
 RS_GRID| Real space fully replicated
 RS_GRID| Group size                                                           1

 RS_GRID| Information for grid number                                          4
 RS_GRID|   Bounds   1            -20      19                Points:          40
 RS_GRID|   Bounds   2            -20      19                Points:          40
 RS_GRID|   Bounds   3            -20      19                Points:          40
 RS_GRID| Real space fully replicated
 RS_GRID| Group size                                                           1

 DISTRIBUTION OF THE PARTICLES (ROWS)
              Process row      Number of particles         Number of matrix rows
                        0                       14                            -1
                        1                       15                            -1
                      Sum                       29                            -1

 DISTRIBUTION OF THE PARTICLES (COLUMNS)
              Process col      Number of particles      Number of matrix columns
                        0                        4                            -1
                        1                        5                            -1
                        2                        5                            -1
                        3                        5                            -1
                        4                        5                            -1
                        5                        5                            -1
                      Sum                       29                            -1

 DISTRIBUTION OF THE NEIGHBOR LISTS
              Total number of particle pairs:                                435
              Total number of matrix elements:                             43419
              Average number of particle pairs:                               37
              Maximum number of particle pairs:                               42
              Average number of matrix element:                             3619
              Maximum number of matrix elements:                            3930


 DISTRIBUTION OF THE OVERLAP MATRIX
              Number  of non-zero blocks:                                    435
              Percentage non-zero blocks:                                 100.00
              Average number of blocks per CPU:                               37
              Maximum number of blocks per CPU:                               42
              Average number of matrix elements per CPU:                    3629
              Maximum number of matrix elements per CPU:                    3940

 Number of electrons:                                                         94
 Number of occupied orbitals:                                                 47
 Number of molecular orbitals:                                                47

 Number of orbital functions:                                                289
 Number of independent orbital functions:                                    289

 Extrapolation method: initial_guess

 Atomic guess: The first density matrix is obtained in terms of atomic orbitals
               and electronic configurations assigned to each atomic kind

 Guess for atomic kind: C

 Electronic structure
    Total number of core electrons                                          2.00
    Total number of valence electrons                                       4.00
    Total number of electrons                                               6.00
    Multiplicity                                                   not specified
    S   [  2.00] 2.00
    P      2.00


 *******************************************************************************
                  Iteration          Convergence                     Energy [au]
 *******************************************************************************
                          1        0.398502                      -5.115479719898
                          2        0.205015                      -5.202300061893
                          3        0.140452E-02                  -5.228968043896
                          4        0.598853E-04                  -5.228969181319
                          5        0.331454E-04                  -5.228969182739
                          6        0.231280E-04                  -5.228969183061
                          7        0.309326E-07                  -5.228969183366

 Energy components [Hartree]           Total Energy ::           -5.228969183366
                                        Band Energy ::           -1.112012670394
                                     Kinetic Energy ::            3.667653037961
                                   Potential Energy ::           -8.896622221327
                                      Virial (-V/T) ::            2.425698976769
                                        Core Energy ::           -8.354438134793
                                          XC Energy ::           -1.430507557558
                                     Coulomb Energy ::            4.555976508984
                       Total Pseudopotential Energy ::          -12.054077251973
                       Local Pseudopotential Energy ::          -12.576064048928
                    Nonlocal Pseudopotential Energy ::            0.521986796955
                                        Confinement ::            0.319860792185

 Orbital energies  State     L     Occupation   Energy[a.u.]          Energy[eV]

                       1     0          2.000      -0.418938          -11.399892

                       1     1          2.000      -0.137068           -3.729810


 Total Electron Density at R=0:                                         0.015856

 Guess for atomic kind: N

 Electronic structure
    Total number of core electrons                                          2.00
    Total number of valence electrons                                       5.00
    Total number of electrons                                               7.00
    Multiplicity                                                   not specified
    S   [  2.00] 2.00
    P      3.00


 *******************************************************************************
                  Iteration          Convergence                     Energy [au]
 *******************************************************************************
                          1        0.735612                      -9.224983179450
                          2        0.816408                      -9.321325405028
                          3        0.140362E-01                  -9.546007465406
                          4        0.294275E-03                  -9.546075698750
                          5        0.137795E-03                  -9.546075722080
                          6        0.895565E-04                  -9.546075725864
                          7        0.253318E-06                  -9.546075728631

 Energy components [Hartree]           Total Energy ::           -9.546075728631
                                        Band Energy ::           -2.056108887189
                                     Kinetic Energy ::            6.742762275832
                                   Potential Energy ::          -16.288838004463
                                      Virial (-V/T) ::            2.415751488503
                                        Core Energy ::          -15.541531078307
                                          XC Energy ::           -2.162814776482
                                     Coulomb Energy ::            8.158270126158
                       Total Pseudopotential Energy ::          -22.321549971218
                       Local Pseudopotential Energy ::          -23.252175720162
                    Nonlocal Pseudopotential Energy ::            0.930625748944
                                        Confinement ::            0.372566170783

 Orbital energies  State     L     Occupation   Energy[a.u.]          Energy[eV]

                       1     0          2.000      -0.663703          -18.060281

                       1     1          3.000      -0.242901           -6.609669


 Total Electron Density at R=0:                                         0.000012

 Guess for atomic kind: H

 Electronic structure
    Total number of core electrons                                          0.00
    Total number of valence electrons                                       1.00
    Total number of electrons                                               1.00
    Multiplicity                                                   not specified
    S      1.00


 *******************************************************************************
                  Iteration          Convergence                     Energy [au]
 *******************************************************************************
                          1        0.437545E-02                  -0.424159432110
                          2        0.531356E-03                  -0.424178438213
                          3        0.259176E-06                  -0.424178722480

 Energy components [Hartree]           Total Energy ::           -0.424178722480
                                        Band Energy ::           -0.199015229016
                                     Kinetic Energy ::            0.464007633961
                                   Potential Energy ::           -0.888186356441
                                      Virial (-V/T) ::            1.914163240935
                                        Core Energy ::           -0.479160803564
                                          XC Energy ::           -0.244352904054
                                     Coulomb Energy ::            0.299334985138
                       Total Pseudopotential Energy ::           -0.962295316385
                       Local Pseudopotential Energy ::           -0.962295316385
                    Nonlocal Pseudopotential Energy ::            0.000000000000
                                        Confinement ::            0.191268788606

 Orbital energies  State     L     Occupation   Energy[a.u.]          Energy[eV]

                       1     0          1.000      -0.199015           -5.415480


 Total Electron Density at R=0:                                         0.242907

 Guess for atomic kind: O

 Electronic structure
    Total number of core electrons                                          2.00
    Total number of valence electrons                                       6.00
    Total number of electrons                                               8.00
    Multiplicity                                                   not specified
    S   [  2.00] 2.00
    P      4.00


 *******************************************************************************
                  Iteration          Convergence                     Energy [au]
 *******************************************************************************
                          1         1.59807                     -14.860601438858
                          2         2.10429                     -14.911792617606
                          3        0.907503E-01                 -15.655516752884
                          4        0.288621E-02                 -15.656865750737
                          5        0.119119E-02                 -15.656866873291
                          6        0.740468E-03                 -15.656867014560
                          7        0.292240E-04                 -15.656867103307
                          8        0.185245E-06                 -15.656867103452

 Energy components [Hartree]           Total Energy ::          -15.656867103452
                                        Band Energy ::           -3.000198979664
                                     Kinetic Energy ::           11.759972915296
                                   Potential Energy ::          -27.416840018748
                                      Virial (-V/T) ::            2.331369316598
                                        Core Energy ::          -26.140717222249
                                          XC Energy ::           -3.154051243207
                                     Coulomb Energy ::           13.637901362004
                       Total Pseudopotential Energy ::          -37.935784258805
                       Local Pseudopotential Energy ::          -39.218909979177
                    Nonlocal Pseudopotential Energy ::            1.283125720372
                                        Confinement ::            0.350941212594

 Orbital energies  State     L     Occupation   Energy[a.u.]          Energy[eV]

                       1     0          2.000      -0.864472          -23.523467

                       1     1          4.000      -0.317814           -8.648158


 Total Electron Density at R=0:                                         0.000068
 Re-scaling the density matrix to get the right number of electrons
                  # Electrons              Trace(P)               Scaling factor
                           94                93.000                        1.011


 SCF WAVEFUNCTION OPTIMIZATION

  ----------------------------------- OT ---------------------------------------
  Minimizer      : DIIS                : direct inversion
                                         in the iterative subspace
                                         using   7 DIIS vectors
                                         safer DIIS on
  Preconditioner : FULL_SINGLE_INVERSE : inversion of 
                                         H + eS - 2*(Sc)(c^T*H*c+const)(Sc)^T
  Precond_solver : DEFAULT
  stepsize       :    0.15000000                  energy_gap     :    0.08000000
  eps_taylor     :   0.10000E-15                  max_taylor     :             4
  ----------------------------------- OT ---------------------------------------

  Step     Update method      Time    Convergence         Total energy    Change
  ------------------------------------------------------------------------------
     1 OT DIIS     0.15E+00    2.8     0.07408234      -148.9786016318 -1.49E+02
     2 OT DIIS     0.15E+00    2.4     0.07949505      -153.3220423232 -4.34E+00
     3 OT DIIS     0.15E+00    2.4     0.03786836      -156.3031786244 -2.98E+00
     4 OT DIIS     0.15E+00    2.4     0.02424599      -157.6259786143 -1.32E+00
     5 OT DIIS     0.15E+00    2.4     0.01663463      -158.2252158198 -5.99E-01
     6 OT DIIS     0.15E+00    2.4     0.01158033      -158.4484670488 -2.23E-01
     7 OT DIIS     0.15E+00    2.4     0.00873580      -158.5649544057 -1.16E-01
     8 OT DIIS     0.15E+00    2.4     0.00571447      -158.6286797768 -6.37E-02
     9 OT DIIS     0.15E+00    2.4     0.00393844      -158.6768317187 -4.82E-02
    10 OT DIIS     0.15E+00    2.4     0.00307065      -158.7039669463 -2.71E-02
    11 OT DIIS     0.15E+00    2.4     0.00217341      -158.7207324194 -1.68E-02
    12 OT DIIS     0.15E+00    2.4     0.00171442      -158.7310035667 -1.03E-02
    13 OT DIIS     0.15E+00    2.4     0.00153631      -158.7388689680 -7.87E-03
    14 OT DIIS     0.15E+00    2.4     0.00136324      -158.7435907137 -4.72E-03
    15 OT DIIS     0.15E+00    2.4     0.00128995      -158.7484677822 -4.88E-03
    16 OT DIIS     0.15E+00    2.4     0.00128436      -158.7509044326 -2.44E-03
    17 OT DIIS     0.15E+00    2.4     0.00120534      -158.7535870847 -2.68E-03
    18 OT SD       0.15E+00    2.4     0.00120346      -158.7552071619 -1.62E-03
    19 OT SD       0.15E+00    2.4     0.00123238      -158.7581485521 -2.94E-03
    20 OT SD       0.15E+00    2.4     0.00129477      -158.7611664944 -3.02E-03
    21 OT SD       0.15E+00    2.4     0.00146976      -158.7642089531 -3.04E-03
    22 OT SD       0.15E+00    2.4     0.00200886      -158.7669534085 -2.74E-03
    23 OT SD       0.15E+00    2.4     0.00345843      -158.7678715269 -9.18E-04
    24 OT SD       0.15E+00    2.4     0.00691693      -158.7601266498  7.74E-03
    25 OT DIIS     0.15E+00    2.4     0.01387202      -158.7127487249  4.74E-02
    26 OT SD       0.15E+00    2.4     0.00133506      -158.7469675975 -3.42E-02
    27 OT SD       0.15E+00    2.4     0.00131983      -158.7496041490 -2.64E-03
    28 OT SD       0.15E+00    2.4     0.00150721      -158.7519688159 -2.36E-03
    29 OT SD       0.15E+00    2.4     0.00205059      -158.7539164838 -1.95E-03
    30 OT SD       0.15E+00    2.4     0.00347614      -158.7540641598 -1.48E-04
    31 OT DIIS     0.15E+00    2.4     0.00662881      -158.7458870719  8.18E-03
    32 OT SD       0.15E+00    2.4     0.00120478      -158.7403488324  5.54E-03
    33 OT SD       0.15E+00    2.4     0.00117790      -158.7426687868 -2.32E-03
    34 OT SD       0.15E+00    2.4     0.00137300      -158.7446346449 -1.97E-03
    35 OT SD       0.15E+00    2.4     0.00192454      -158.7461498985 -1.52E-03
    36 OT SD       0.15E+00    2.4     0.00317168      -158.7461022561  4.76E-05
    37 OT DIIS     0.15E+00    2.4     0.00579377      -158.7403238513  5.78E-03
    38 OT SD       0.15E+00    2.4     0.00102240      -158.7412073361 -8.83E-04
    39 OT SD       0.15E+00    2.4     0.00108376      -158.7431578916 -1.95E-03
    40 OT SD       0.15E+00    2.4     0.00137714      -158.7449328369 -1.77E-03
    41 OT SD       0.15E+00    2.4     0.00232599      -158.7458819286 -9.49E-04
    42 OT DIIS     0.15E+00    2.4     0.00484150      -158.7424557388  3.43E-03
    43 OT DIIS     0.15E+00    2.4     0.00102520      -158.7376565314  4.80E-03
    44 OT SD       0.15E+00    2.4     0.00096445      -158.7387670665 -1.11E-03
    45 OT SD       0.15E+00    2.4     0.00100881      -158.7404985466 -1.73E-03
    46 OT SD       0.15E+00    2.4     0.00119132      -158.7421359209 -1.64E-03
    47 OT SD       0.15E+00    2.4     0.00177199      -158.7433915293 -1.26E-03
    48 OT SD       0.15E+00    2.4     0.00335433      -158.7427164415  6.75E-04
    49 OT DIIS     0.15E+00    2.4     0.00702878      -158.7322490158  1.05E-02
    50 OT SD       0.15E+00    2.4     0.00098157      -158.7341893806 -1.94E-03
    51 OT SD       0.15E+00    2.4     0.00102332      -158.7356484079 -1.46E-03
    52 OT SD       0.15E+00    2.4     0.00134039      -158.7367896342 -1.14E-03
    53 OT SD       0.15E+00    2.4     0.00215798      -158.7372215878 -4.32E-04
    54 OT SD       0.15E+00    2.4     0.00393244      -158.7349275781  2.29E-03
    55 OT DIIS     0.15E+00    2.4     0.00760397      -158.7220528267  1.29E-02
    56 OT SD       0.15E+00    2.4     0.00084127      -158.7353900027 -1.33E-02
    57 OT SD       0.15E+00    2.4     0.00088368      -158.7366921782 -1.30E-03
    58 OT SD       0.15E+00    2.4     0.00105226      -158.7379313156 -1.24E-03
    59 OT SD       0.15E+00    2.4     0.00158632      -158.7388597930 -9.28E-04
    60 OT SD       0.15E+00    2.4     0.00302115      -158.7382171613  6.43E-04
    61 OT DIIS     0.15E+00    2.4     0.00626406      -158.7297709103  8.45E-03
    62 OT SD       0.15E+00    2.4     0.00084496      -158.7319147021 -2.14E-03
    63 OT SD       0.15E+00    2.4     0.00085145      -158.7330506453 -1.14E-03
    64 OT SD       0.15E+00    2.4     0.00102408      -158.7340302090 -9.80E-04
    65 OT SD       0.15E+00    2.4     0.00154053      -158.7346833837 -6.53E-04
    66 OT SD       0.15E+00    2.4     0.00283585      -158.7339526281  7.31E-04
    67 OT DIIS     0.15E+00    2.4     0.00576816      -158.7268724868  7.08E-03
    68 OT SD       0.15E+00    2.4     0.00072909      -158.7330438476 -6.17E-03
    69 OT SD       0.15E+00    2.4     0.00076958      -158.7340573756 -1.01E-03
    70 OT SD       0.15E+00    2.4     0.00092167      -158.7350227280 -9.65E-04
    71 OT SD       0.15E+00    2.4     0.00138870      -158.7357521412 -7.29E-04
    72 OT SD       0.15E+00    2.4     0.00260399      -158.7353201023  4.32E-04
    73 OT DIIS     0.15E+00    2.4     0.00535302      -158.7293237109  6.00E-03
    74 OT SD       0.15E+00    2.4     0.00073428      -158.7305168854 -1.19E-03
    75 OT SD       0.15E+00    2.4     0.00075624      -158.7313653462 -8.48E-04
    76 OT SD       0.15E+00    2.4     0.00096301      -158.7320731481 -7.08E-04
    77 OT SD       0.15E+00    2.4     0.00158588      -158.7323879375 -3.15E-04
    78 OT SD       0.15E+00    2.4     0.00314529      -158.7308824786  1.51E-03
    79 OT DIIS     0.15E+00    2.4     0.00665633      -158.7206229396  1.03E-02
    80 OT SD       0.15E+00    2.4     0.00063642      -158.7312101871 -1.06E-02
    81 OT SD       0.15E+00    2.4     0.00066657      -158.7319769280 -7.67E-04
    82 OT SD       0.15E+00    2.4     0.00077234      -158.7327142458 -7.37E-04
    83 OT SD       0.15E+00    2.4     0.00107301      -158.7333356656 -6.21E-04
    84 OT SD       0.15E+00    2.4     0.00182570      -158.7334522265 -1.17E-04
    85 OT DIIS     0.15E+00    2.4     0.00347772      -158.7313537895  2.10E-03
    86 OT SD       0.15E+00    2.4     0.00062841      -158.7296780689  1.68E-03
    87 OT SD       0.15E+00    2.4     0.00067931      -158.7303009207 -6.23E-04
    88 OT SD       0.15E+00    2.4     0.00097097      -158.7307730954 -4.72E-04
    89 OT SD       0.15E+00    2.4     0.00185527      -158.7306327230  1.40E-04
    90 OT DIIS     0.15E+00    2.4     0.00403153      -158.7272507845  3.38E-03
    91 OT DIIS     0.15E+00    2.4     0.00065804      -158.7288337077 -1.58E-03
    92 OT SD       0.15E+00    2.4     0.00057148      -158.7304029085 -1.57E-03
    93 OT SD       0.15E+00    2.4     0.00073719      -158.7308064172 -4.04E-04
[...]
      2       N      2       5.000          5.427                        -0.427
      3       C      1       4.000          3.845                         0.155
      4       C      1       4.000          4.595                        -0.595
      5       C      1       4.000          3.932                         0.068
      6       C      1       4.000          4.443                        -0.443
      7       C      1       4.000          4.438                        -0.438
      8       H      3       1.000          0.549                         0.451
      9       C      1       4.000          3.785                         0.215
     10       O      4       6.000          6.624                        -0.624
     11       H      3       1.000          0.386                         0.614
     12       C      1       4.000          4.384                        -0.384
     13       H      3       1.000          0.533                         0.467
     14       C      1       4.000          4.480                        -0.480
     15       H      3       1.000          0.553                         0.447
     16       H      3       1.000          0.545                         0.455
     17       H      3       1.000          0.554                         0.446
     18       C      1       4.000          3.691                         0.309
     19       O      4       6.000          6.516                        -0.516
     20       N      2       5.000          5.598                        -0.598
     21       C      1       4.000          5.294                        -1.294
     22       H      3       1.000          0.554                         0.446
     23       H      3       1.000          0.556                         0.444
     24       C      1       4.000          3.546                         0.454
     25       O      4       6.000          6.690                        -0.690
     26       O      4       6.000          6.628                        -0.628
     27       H      3       1.000          0.477                         0.523
     28       H      3       1.000          0.546                         0.454
     29       H      3       1.000          0.554                         0.446

  Total Charge                                                           -0.966
 !-----------------------------------------------------------------------------!

 ENERGY| Total FORCE_EVAL ( QS ) energy (a.u.):             -158.729913894835903


 -------------------------------------------------------------------------------
 -                                                                             -
 -                                DBCSR STATISTICS                             -
 -                                                                             -
 -------------------------------------------------------------------------------
 COUNTER                                    TOTAL       BLAS       SMM       ACC
 flops     5 x    15 x    15                49500       0.0%    100.0%      0.0%
 flops     5 x    32 x    15                52800       0.0%    100.0%      0.0%
 flops     5 x    15 x    32                52800       0.0%    100.0%      0.0%
 flops    13 x    15 x    15               210600       0.0%    100.0%      0.0%
 flops    13 x    32 x    15               224640       0.0%    100.0%      0.0%
 flops    13 x    15 x    32               224640       0.0%    100.0%      0.0%
 flops     5 x    32 x    32               225280       0.0%    100.0%      0.0%
 flops    13 x    32 x    32               958464       0.0%    100.0%      0.0%
 flops     5 x     5 x    15              8613000       0.0%    100.0%      0.0%
 flops    15 x    15 x    15             10408500       0.0%    100.0%      0.0%
 flops    15 x    15 x    52             16099200       0.0%    100.0%      0.0%
 flops     5 x     5 x    32             18374400       0.0%    100.0%      0.0%
 flops    15 x    15 x    32             22204800       0.0%    100.0%      0.0%
 flops    15 x    32 x    15             22204800       0.0%    100.0%      0.0%
 flops    32 x    15 x    15             22204800       0.0%    100.0%      0.0%
 flops    15 x    15 x    41             25387200       0.0%    100.0%      0.0%
 flops    15 x    15 x    49             30340800       0.0%    100.0%      0.0%
 flops     5 x    15 x     5             31762500       0.0%    100.0%      0.0%
 flops     5 x    13 x    15             33590700       0.0%    100.0%      0.0%
 flops    13 x     5 x    15             33590700       0.0%    100.0%      0.0%
 flops    32 x    15 x    52             34295040       0.0%    100.0%      0.0%
 flops    15 x    32 x    52             34344960       0.0%    100.0%      0.0%
 flops   142 x    15 x    52             38322960       0.0%    100.0%      0.0%
 flops   147 x    15 x    52             39672360       0.0%    100.0%      0.0%
 flops    32 x    32 x    15             47370240       0.0%    100.0%      0.0%
 flops    15 x    32 x    32             47370240       0.0%    100.0%      0.0%
 flops    32 x    15 x    32             47370240       0.0%    100.0%      0.0%
 flops    32 x    15 x    41             54080640       0.0%    100.0%      0.0%
 flops    15 x    32 x    41             54159360       0.0%    100.0%      0.0%
 flops   142 x    15 x    15             54826200       0.0%    100.0%      0.0%
 flops   147 x    15 x    15             56756700       0.0%    100.0%      0.0%
 flops   142 x    15 x    41             60432360       0.0%    100.0%      0.0%
 flops   147 x    15 x    41             62560260       0.0%    100.0%      0.0%
 flops    32 x    15 x    49             64632960       0.0%    100.0%      0.0%
 flops    15 x    32 x    49             64727040       0.0%    100.0%      0.0%
 flops     5 x    32 x     5             67760000       0.0%    100.0%      0.0%
 flops     5 x    13 x    32             71660160       0.0%    100.0%      0.0%
 flops    13 x     5 x    32             71660160       0.0%    100.0%      0.0%
 flops   142 x    15 x    49             72224040       0.0%    100.0%      0.0%
 flops    32 x    32 x    52             73269248       0.0%    100.0%      0.0%
 flops   147 x    15 x    49             74767140       0.0%    100.0%      0.0%
 flops   142 x    32 x    52             81755648       0.0%    100.0%      0.0%
 flops   147 x    32 x    52             84634368       0.0%    100.0%      0.0%
 flops    32 x    32 x    32            101056512       0.0%    100.0%      0.0%
 flops    32 x    32 x    41            115539968       0.0%    100.0%      0.0%
 flops   142 x    32 x    15            116962560       0.0%    100.0%      0.0%
 flops   142 x    15 x    32            116962560       0.0%    100.0%      0.0%
 flops   147 x    15 x    32            121080960       0.0%    100.0%      0.0%
 flops   147 x    32 x    15            121080960       0.0%    100.0%      0.0%
 flops   142 x    32 x    41            128922368       0.0%    100.0%      0.0%
 flops   147 x    32 x    41            133461888       0.0%    100.0%      0.0%
 flops     5 x    15 x    13            135135000       0.0%    100.0%      0.0%
 flops    13 x    15 x     5            135135000       0.0%    100.0%      0.0%
 flops    32 x    32 x    49            138084352       0.0%    100.0%      0.0%
 flops    13 x    13 x    15            150852780       0.0%    100.0%      0.0%
 flops   142 x    32 x    49            154077952       0.0%    100.0%      0.0%
 flops   147 x    32 x    49            159503232       0.0%    100.0%      0.0%
 flops   142 x    32 x    32            249520128       0.0%    100.0%      0.0%
 flops   147 x    32 x    32            258306048       0.0%    100.0%      0.0%
 flops     5 x    32 x    13            288288000       0.0%    100.0%      0.0%
 flops    13 x    32 x     5            288288000       0.0%    100.0%      0.0%
 flops    13 x    13 x    32            321819264       0.0%    100.0%      0.0%
 flops    13 x    15 x    13            574938000       0.0%    100.0%      0.0%
 flops    13 x    32 x    13           1226534400       0.0%    100.0%      0.0%
 flops inhomo. stacks                   441085494     100.0%      0.0%      0.0%
 flops total                         7.112068E+09       6.2%     93.8%      0.0%
 flops max/rank                      2.352560E+09       7.2%     92.8%      0.0%
 matmuls inhomo. stacks                      3443     100.0%      0.0%      0.0%
 matmuls total                             780112       0.4%     99.6%      0.0%
 number of processed stacks                 87386       3.9%     96.1%      0.0%
 average stack size                                     1.0       9.3       0.0
 marketing flops                     7.770137E+09
 -------------------------------------------------------------------------------
 # multiplications                           3788
 max memory usage/rank             366.706688E+06
 # max total images/rank                        3
 # max 3D layers                                1
 # MPI messages exchanged                  909120
 MPI messages size (bytes):
  total size                         3.783876E+09
  min size                           0.000000E+00
  max size                          67.032000E+03
  average size                       4.162130E+03
 MPI breakdown and total messages size (bytes):
             size <=      128              653810                        0
       128 < size <=     8192              141060                707911640
      8192 < size <=    32768               72530                946139760
     32768 < size <=   131072               41720               2129756600
    131072 < size <=  4194304                   0                        0
   4194304 < size <= 16777216                   0                        0
  16777216 < size                               0                        0
 -------------------------------------------------------------------------------

 *** WARNING in dbcsr/mm/dbcsr_mm.F:267 :: Using a non-square number of ***
 *** MPI ranks might lead to poor performance.                          ***
 *** Used ranks: 12                                                     ***
 *** Suggested: 9 25                                                    ***

 -------------------------------------------------------------------------------

 MEMORY| Estimated peak process memory [MiB]                                 350

 -------------------------------------------------------------------------------
 ----                             MULTIGRID INFO                            ----
 -------------------------------------------------------------------------------
 count for grid        1:         507673          cutoff [a.u.]          125.00
 count for grid        2:         143819          cutoff [a.u.]           41.67
 count for grid        3:          88806          cutoff [a.u.]           13.89
 count for grid        4:          45739          cutoff [a.u.]            4.63
 total gridlevel count  :         786037

 -------------------------------------------------------------------------------
 -                                                                             -
 -                         MESSAGE PASSING PERFORMANCE                         -
 -                                                                             -
 -------------------------------------------------------------------------------

 ROUTINE             CALLS      AVE VOLUME [Bytes]
 MP_Group              194
 MP_Bcast            11828                  62497.
 MP_Allreduce        39431                    138.
 MP_Sync               176
 MP_Alltoall         16643                5922361.
 MP_ISendRecv        11385                 466603.
 MP_Wait            260429
 MP_comm_split         172
 MP_ISend           177776                  40912.
 MP_IRecv           175706                  41017.
 MP_Recv                45                  18496.
 MP_Memory          290814
 -------------------------------------------------------------------------------


 -------------------------------------------------------------------------------
 -                                                                             -
 -                           R E F E R E N C E S                               -
 -                                                                             -
 -------------------------------------------------------------------------------
 
 CP2K version 5.1, the CP2K developers group (2017).
 CP2K is freely available from https://www.cp2k.org/ .

 Schuett, Ole; Messmer, Peter; Hutter, Juerg; VandeVondele, Joost. 
 Electronic Structure Calculations on Graphics Processing Units, John Wiley & Sons, Ltd, 173-190 (2016). 
 GPU-Accelerated Sparse Matrix-Matrix Multiplication for Linear Scaling Density Functional Theory.
 http://dx.doi.org/10.1002/9781118670712.ch8


 Borstnik, U; VandeVondele, J; Weber, V; Hutter, J. 
 PARALLEL COMPUTING, 40 (5-6), 47-58 (2014). 
 Sparse matrix multiplication: The distributed block-compressed sparse
 row library.
 http://dx.doi.org/10.1016/j.parco.2014.03.012


 Hutter, J; Iannuzzi, M; Schiffmann, F; VandeVondele, J. 
 WILEY INTERDISCIPLINARY REVIEWS-COMPUTATIONAL MOLECULAR SCIENCE, 4 (1), 15-25 (2014). 
 CP2K: atomistic simulations of condensed matter systems.
 http://dx.doi.org/10.1002/wcms.1159


 VandeVondele, J; Hutter, J. 
 JOURNAL OF CHEMICAL PHYSICS, 127 (11), 114105 (2007). 
 Gaussian basis sets for accurate calculations on molecular systems in
 gas and condensed phases.
 http://dx.doi.org/10.1063/1.2770708


 Genovese, L; Deutsch, T; Goedecker, S. 
 JOURNAL OF CHEMICAL PHYSICS, 127 (5), 054704 (2007). 
 Efficient and accurate three-dimensional Poisson solver for surface
 problems.
 http://dx.doi.org/10.1063/1.2754685


 Genovese, L; Deutsch, T; Neelov, A; Goedecker, S; Beylkin, G. 
 JOURNAL OF CHEMICAL PHYSICS, 125 (7), 074105 (2006). 
 Efficient solution of Poisson's equation with free boundary conditions.
 http://dx.doi.org/10.1063/1.2335442


 Krack, M. 
 THEORETICAL CHEMISTRY ACCOUNTS, 114 (1-3), 145-152 (2005). 
 Pseudopotentials for H to Kr optimized for gradient-corrected
 exchange-correlation functionals.
 http://dx.doi.org/10.1007/s00214-005-0655-y


 VandeVondele, J; Krack, M; Mohamed, F; Parrinello, M; Chassaing, T;
 Hutter, J. COMPUTER PHYSICS COMMUNICATIONS, 167 (2), 103-128 (2005). 
 QUICKSTEP: Fast and accurate density functional calculations using a
 mixed Gaussian and plane waves approach.
 http://dx.doi.org/10.1016/j.cpc.2004.12.014


 Frigo, M; Johnson, SG. 
 PROCEEDINGS OF THE IEEE, 93 (2), 216-231 (2005). 
 The design and implementation of FFTW3.
 http://dx.doi.org/10.1109/JPROC.2004.840301


 VandeVondele, J; Hutter, J. 
 JOURNAL OF CHEMICAL PHYSICS, 118 (10), 4365-4369 (2003). 
 An efficient orbital transformation method for electronic structure
 calculations.
 http://dx.doi.org/10.1063/1.1543154


 Hartwigsen, C; Goedecker, S; Hutter, J. 
 PHYSICAL REVIEW B, 58 (7), 3641-3662 (1998). 
 Relativistic separable dual-space Gaussian pseudopotentials from H to Rn.
 http://dx.doi.org/10.1103/PhysRevB.58.3641


 Lippert, G; Hutter, J; Parrinello, M. 
 MOLECULAR PHYSICS, 92 (3), 477-487 (1997). 
 A hybrid Gaussian and plane wave density functional scheme.
 http://dx.doi.org/10.1080/002689797170220


 Perdew, JP; Burke, K; Ernzerhof, M. 
 PHYSICAL REVIEW LETTERS, 77 (18), 3865-3868 (1996). 
 Generalized gradient approximation made simple.
 http://dx.doi.org/10.1103/PhysRevLett.77.3865


 Goedecker, S; Teter, M; Hutter, J. 
 PHYSICAL REVIEW B, 54 (3), 1703-1710 (1996). 
 Separable dual-space Gaussian pseudopotentials.
 http://dx.doi.org/10.1103/PhysRevB.54.1703


 -------------------------------------------------------------------------------
 -                                                                             -
 -                                T I M I N G                                  -
 -                                                                             -
 -------------------------------------------------------------------------------
 SUBROUTINE                       CALLS  ASD         SELF TIME        TOTAL TIME
                                MAXIMUM       AVERAGE  MAXIMUM  AVERAGE  MAXIMUM
 CP2K                                 1  1.0    0.018    0.032  410.653  410.658
 qs_energies                          1  2.0    0.001    0.001  410.165  410.166
 scf_env_do_scf                       1  3.0    0.000    0.001  409.300  409.300
 scf_env_do_scf_inner_loop          172  4.0    0.006    0.029  406.472  406.473
 qs_ks_update_qs_env                173  5.0    0.001    0.002  324.825  324.838
 rebuild_ks_matrix                  172  6.0    0.001    0.001  324.816  324.829
 qs_ks_build_kohn_sham_matrix       172  7.0    0.024    0.025  324.815  324.828
 pw_transfer                       3274  9.6    0.210    0.248  232.973  236.406
 fft_wrap_pw1pw2                   3274 10.6    0.036    0.040  232.763  236.216
 fft_wrap_pw1pw2_130               2239 11.7   17.638   18.494  226.514  230.191
 fft3d_ps                          3274 12.6  111.838  114.601  179.276  183.480
 qs_vxc_create                      172  8.0    0.004    0.005  168.725  169.037
 xc_vxc_pw_create                   172  9.0    1.497    1.805  168.720  169.033
 xc_rho_set_and_dset_create         172 10.0    0.834    0.849   93.489   96.678
 qs_rho_update_rho                  173  5.0    0.001    0.001   81.341   81.355
 calculate_rho_elec                 173  6.0   14.446   29.565   81.341   81.355
 pw_poisson_solve                   172  8.0    3.376    3.440   69.809   69.809
 density_rs2pw                      173  7.0    0.011    0.012   63.874   69.223
 sum_up_and_integrate               172  8.0    0.467    0.471   64.943   64.947
 integrate_v_rspace                 172  9.0   14.174   28.779   64.476   64.481
 rs_pw_transfer                    1383  9.5    0.017    0.018   39.734   45.023
 x_to_yz                           1721 14.1   31.639   31.763   40.217   41.105
 potential_pw2rs                    172 10.0    0.041    0.044   35.615   35.620
 yz_to_x                           1553 13.1   17.330   18.743   27.159   32.792
 xc_functional_eval                 172 11.0    0.003    0.003   27.385   30.479
 pbe_lda_eval                       172 12.0   27.383   30.477   27.383   30.477
 ps_wavelet_solve                   172  9.0   23.140   24.167   27.628   27.766
 rs_pw_transfer_RS2PW_130           175  9.0    3.299    3.480   20.492   25.799
 mp_waitany                        5568 11.5   19.647   25.053   19.647   25.053
 mp_alltoall_z22v                  3274 14.6   18.406   24.251   18.406   24.251
 mp_alltoall_d11v                  2886 12.2   15.876   21.071   15.876   21.071
 pw_scatter_p                      1721 13.1   19.481   20.282   19.481   20.282
 rs_distribute_matrix               345  8.5    0.028    0.089   14.710   19.844
 pw_gather_p                       1553 12.1   15.691   16.115   15.691   16.115
 mp_alltoall_d54                    172 10.0    1.975   11.631    1.975   11.631
 pw_derive                         1032 10.5   10.924   11.400   10.924   11.400
 rs_pw_transfer_PW2RS_130           173 12.0    6.561    6.633   11.084   11.203
 -------------------------------------------------------------------------------

 The number of warnings for this run is : 1
 
 -------------------------------------------------------------------------------
  **** **** ******  **  PROGRAM ENDED AT                 2019-06-18 15:16:16.906
 ***** ** ***  *** **   PROGRAM RAN ON                                      c580
 **    ****   ******    PROGRAM RAN BY                                    vamodi
 ***** **    ** ** **   PROGRAM PROCESS ID                                 11968
  **** **  *******  **  PROGRAM STOPPED IN /wrk/vamodi/BioExcel-2/Summer_school-
                                           2019/pw_cutoff/cutoff/cutoff-250
