 DBCSR| Multiplication driver                                               XSMM
 DBCSR| Multrec recursion limit                                              512
 DBCSR| Multiplication stack size                                           1000
 DBCSR| Maximum elements for images                                    UNLIMITED
 DBCSR| Multiplicative factor virtual images                                   1
 DBCSR| Multiplication size stacks                                             3
 DBCSR| Number of 3D layers                                               SINGLE
 DBCSR| Use MPI memory allocation                                              T
 DBCSR| Use RMA algorithm                                                      F
 DBCSR| Use Communication thread                                               T
 DBCSR| Communication thread load                                             87


  **** **** ******  **  PROGRAM STARTED AT               2019-06-19 00:10:14.095
 ***** ** ***  *** **   PROGRAM STARTED ON                              nid00616
 **    ****   ******    PROGRAM STARTED BY                                vamodi
 ***** **    ** ** **   PROGRAM PROCESS ID                                 34055
  **** **  *******  **  PROGRAM STARTED IN /wrk/vamodi/BioExcel-2/Summer_school-
                                           2019/single_pnt

 CP2K| version string:                                          CP2K version 6.1
 CP2K| source code revision number:                                    svn:18464
 CP2K| cp2kflags: libint fftw3 libxc elpa=201605 elpa_qr parallel mpi3 scalapack
 CP2K|             xsmm has_no_shared_glibc plumed2
 CP2K| is freely available from                            https://www.cp2k.org/
 CP2K| Program compiled at                         Fri Jun 15 12:47:08 EEST 2018
 CP2K| Program compiled on                                              nid00390
 CP2K| Program compiled for                                           sisu_elpaU
 CP2K| Data directory path                     /appl/chem/cp2k/6.1/cp2k-6.1/data
 CP2K| Input file name                                                 input.inp

 GLOBAL| Force Environment number                                              1
 GLOBAL| Basis set file name                                        BASIS_MOLOPT
 GLOBAL| Potential file name                                           POTENTIAL
 GLOBAL| MM Potential file name                                     MM_POTENTIAL
 GLOBAL| Coordinate file name                                    init_vacuum.xyz
 GLOBAL| Method name                                                        CP2K
 GLOBAL| Project name                                                         SP
 GLOBAL| Preferred FFT library                                             FFTW3
 GLOBAL| Preferred diagonalization lib.                                       SL
 GLOBAL| Run type                                                         ENERGY
 GLOBAL| All-to-all communication in single precision                          F
 GLOBAL| FFTs using library dependent lengths                                  F
 GLOBAL| Global print level                                               MEDIUM
 GLOBAL| Total number of message passing processes                           192
 GLOBAL| Number of threads for this process                                    1
 GLOBAL| This output is from process                                           0
 GLOBAL| CPU model name :  Intel(R) Xeon(R) CPU E5-2690 v3 @ 2.60GHz

 MEMORY| system memory details [Kb]
 MEMORY|                        rank 0           min           max       average
 MEMORY| MemTotal             65975120      65975120      65975120      65975120
 MEMORY| MemFree              61373928      61291080      61373928      61329257
 MEMORY| Buffers                     0             0             0             0
 MEMORY| Cached                 198588        198532        199264        198864
 MEMORY| Slab                   251720        251720        261924        255449
 MEMORY| SReclaimable             8320          8124          8452          8262
 MEMORY| MemLikelyFree        61580836      61497936      61580836      61536383


 *** Fundamental physical constants (SI units) ***

 *** Literature: B. J. Mohr and B. N. Taylor,
 ***             CODATA recommended values of the fundamental physical
 ***             constants: 2006, Web Version 5.1
 ***             http://physics.nist.gov/constants

 Speed of light in vacuum [m/s]                             2.99792458000000E+08
 Magnetic constant or permeability of vacuum [N/A**2]       1.25663706143592E-06
 Electric constant or permittivity of vacuum [F/m]          8.85418781762039E-12
 Planck constant (h) [J*s]                                  6.62606896000000E-34
 Planck constant (h-bar) [J*s]                              1.05457162825177E-34
 Elementary charge [C]                                      1.60217648700000E-19
 Electron mass [kg]                                         9.10938215000000E-31
 Electron g factor [ ]                                     -2.00231930436220E+00
 Proton mass [kg]                                           1.67262163700000E-27
 Fine-structure constant                                    7.29735253760000E-03
 Rydberg constant [1/m]                                     1.09737315685270E+07
 Avogadro constant [1/mol]                                  6.02214179000000E+23
 Boltzmann constant [J/K]                                   1.38065040000000E-23
 Atomic mass unit [kg]                                      1.66053878200000E-27
 Bohr radius [m]                                            5.29177208590000E-11

 *** Conversion factors ***

 [u] -> [a.u.]                                              1.82288848426455E+03
 [Angstrom] -> [Bohr] = [a.u.]                              1.88972613288564E+00
 [a.u.] = [Bohr] -> [Angstrom]                              5.29177208590000E-01
 [a.u.] -> [s]                                              2.41888432650478E-17
 [a.u.] -> [fs]                                             2.41888432650478E-02
 [a.u.] -> [J]                                              4.35974393937059E-18
 [a.u.] -> [N]                                              8.23872205491840E-08
 [a.u.] -> [K]                                              3.15774647902944E+05
 [a.u.] -> [kJ/mol]                                         2.62549961709828E+03
 [a.u.] -> [kcal/mol]                                       6.27509468713739E+02
 [a.u.] -> [Pa]                                             2.94210107994716E+13
 [a.u.] -> [bar]                                            2.94210107994716E+08
 [a.u.] -> [atm]                                            2.90362800883016E+08
 [a.u.] -> [eV]                                             2.72113838565563E+01
 [a.u.] -> [Hz]                                             6.57968392072181E+15
 [a.u.] -> [1/cm] (wave numbers)                            2.19474631370540E+05
 [a.u./Bohr**2] -> [1/cm]                                   5.14048714338585E+03
 

 CELL_TOP| Volume [angstrom^3]:                                         8000.000
 CELL_TOP| Vector a [angstrom    20.000     0.000     0.000    |a| =      20.000
 CELL_TOP| Vector b [angstrom     0.000    20.000     0.000    |b| =      20.000
 CELL_TOP| Vector c [angstrom     0.000     0.000    20.000    |c| =      20.000
 CELL_TOP| Angle (b,c), alpha [degree]:                                   90.000
 CELL_TOP| Angle (a,c), beta  [degree]:                                   90.000
 CELL_TOP| Angle (a,b), gamma [degree]:                                   90.000
 CELL_TOP| Numerically orthorhombic:                                         YES

 GENERATE|  Preliminary Number of Bonds generated:                             0
 GENERATE|  Achieved consistency in connectivity generation.

 CELL| Volume [angstrom^3]:                                             8000.000
 CELL| Vector a [angstrom]:      20.000     0.000     0.000    |a| =      20.000
 CELL| Vector b [angstrom]:       0.000    20.000     0.000    |b| =      20.000
 CELL| Vector c [angstrom]:       0.000     0.000    20.000    |c| =      20.000
 CELL| Angle (b,c), alpha [degree]:                                       90.000
 CELL| Angle (a,c), beta  [degree]:                                       90.000
 CELL| Angle (a,b), gamma [degree]:                                       90.000
 CELL| Numerically orthorhombic:                                             YES

 CELL_REF| Volume [angstrom^3]:                                         8000.000
 CELL_REF| Vector a [angstrom    20.000     0.000     0.000    |a| =      20.000
 CELL_REF| Vector b [angstrom     0.000    20.000     0.000    |b| =      20.000
 CELL_REF| Vector c [angstrom     0.000     0.000    20.000    |c| =      20.000
 CELL_REF| Angle (b,c), alpha [degree]:                                   90.000
 CELL_REF| Angle (a,c), beta  [degree]:                                   90.000
 CELL_REF| Angle (a,b), gamma [degree]:                                   90.000
 CELL_REF| Numerically orthorhombic:                                         YES

 *******************************************************************************
 *******************************************************************************
 **                                                                           **
 **     #####                         ##              ##                      **
 **    ##   ##            ##          ##              ##                      **
 **   ##     ##                       ##            ######                    **
 **   ##     ##  ##   ##  ##   #####  ##  ##   ####   ##    #####    #####    **
 **   ##     ##  ##   ##  ##  ##      ## ##   ##      ##   ##   ##  ##   ##   **
 **   ##  ## ##  ##   ##  ##  ##      ####     ###    ##   ######   ######    **
 **    ##  ###   ##   ##  ##  ##      ## ##      ##   ##   ##       ##        **
 **     #######   #####   ##   #####  ##  ##  ####    ##    #####   ##        **
 **           ##                                                    ##        **
 **                                                                           **
 **                                                ... make the atoms dance   **
 **                                                                           **
 **            Copyright (C) by CP2K developers group (2000 - 2018)           **
 **                                                                           **
 *******************************************************************************

 DFT| Spin restricted Kohn-Sham (RKS) calculation                            RKS
 DFT| Multiplicity                                                             1
 DFT| Number of spin states                                                    1
 DFT| Charge                                                                  -1
 DFT| Self-interaction correction (SIC)                                       NO
 DFT| Cutoffs: density                                              1.000000E-10
 DFT|          gradient                                             1.000000E-10
 DFT|          tau                                                  1.000000E-10
 DFT|          cutoff_smoothing_range                               0.000000E+00
 DFT| XC density smoothing                                                  NONE
 DFT| XC derivatives                                                          PW
 FUNCTIONAL| ROUTINE=NEW
 FUNCTIONAL| PBE:
 FUNCTIONAL| J.P.Perdew, K.Burke, M.Ernzerhof, Phys. Rev. Letter, vol. 77, n 18,
 FUNCTIONAL|  pp. 3865-3868, (1996){spin unpolarized}                           

 QS| Method:                                                                 GPW
 QS| Density plane wave grid type                        NON-SPHERICAL FULLSPACE
 QS| Number of grid levels:                                                    4
 QS| Density cutoff [a.u.]:                                                140.0
 QS| Multi grid cutoff [a.u.]: 1) grid level                               140.0
 QS|                           2) grid level                                46.7
 QS|                           3) grid level                                15.6
 QS|                           4) grid level                                 5.2
 QS| Grid level progression factor:                                          3.0
 QS| Relative density cutoff [a.u.]:                                        20.0
 QS| Consistent realspace mapping and integration 
 QS| Interaction thresholds: eps_pgf_orb:                                1.0E-20
 QS|                         eps_filter_matrix:                          0.0E+00
 QS|                         eps_core_charge:                            1.0E-14
 QS|                         eps_rho_gspace:                             1.0E-12
 QS|                         eps_rho_rspace:                             1.0E-12
 QS|                         eps_gvg_rspace:                             1.0E-06
 QS|                         eps_ppl:                                    1.0E-02
 QS|                         eps_ppnl:                                   1.0E-08


 ATOMIC KIND INFORMATION

  1. Atomic kind: C                                     Number of atoms:      12

     Orbital Basis Set                                           DZVP-MOLOPT-GTH

       Number of orbital shell sets:                                           1
       Number of orbital shells:                                               5
       Number of primitive Cartesian functions:                                7
       Number of Cartesian basis functions:                                   14
       Number of spherical basis functions:                                   13
       Norm type:                                                              2

       Normalised Cartesian orbitals:

                        Set   Shell   Orbital            Exponent    Coefficient

                          1       1    2s                6.132625      -0.263661
                                                         2.625196      -0.231112
                                                         1.045457       0.042712
                                                         0.478316       0.306085
                                                         0.178617       0.065483
                                                         0.075145       0.000568
                                                         0.030287       0.000417

                          1       2    3s                6.132625       0.131937
                                                         2.625196       0.414269
                                                         1.045457      -0.593590
                                                         0.478316       0.644922
                                                         0.178617       0.069203
                                                         0.075145      -0.145101
                                                         0.030287       0.008247

                          1       3    3px               6.132625       0.562677
                                                         2.625196       0.633910
                                                         1.045457       0.379157
                                                         0.478316       0.235193
                                                         0.178617       0.052379
                                                         0.075145       0.003677
                                                         0.030287       0.000105
                          1       3    3py               6.132625       0.562677
                                                         2.625196       0.633910
                                                         1.045457       0.379157
                                                         0.478316       0.235193
                                                         0.178617       0.052379
                                                         0.075145       0.003677
                                                         0.030287       0.000105
                          1       3    3pz               6.132625       0.562677
                                                         2.625196       0.633910
                                                         1.045457       0.379157
                                                         0.478316       0.235193
                                                         0.178617       0.052379
                                                         0.075145       0.003677
                                                         0.030287       0.000105

                          1       4    4px               6.132625      -0.472364
                                                         2.625196      -0.221326
                                                         1.045457      -0.481781
                                                         0.478316       0.135466
                                                         0.178617       0.072281
                                                         0.075145       0.024920
                                                         0.030287       0.002706
                          1       4    4py               6.132625      -0.472364
                                                         2.625196      -0.221326
                                                         1.045457      -0.481781
                                                         0.478316       0.135466
                                                         0.178617       0.072281
                                                         0.075145       0.024920
                                                         0.030287       0.002706
                          1       4    4pz               6.132625      -0.472364
                                                         2.625196      -0.221326
                                                         1.045457      -0.481781
                                                         0.478316       0.135466
                                                         0.178617       0.072281
                                                         0.075145       0.024920
                                                         0.030287       0.002706

                          1       5    4dx2              6.132625       0.874783
                                                         2.625196       0.375772
                                                         1.045457       0.653959
                                                         0.478316       0.191007
                                                         0.178617       0.018656
                                                         0.075145       0.003649
                                                         0.030287      -0.000011
                          1       5    4dxy              6.132625       1.515169
                                                         2.625196       0.650856
                                                         1.045457       1.132690
                                                         0.478316       0.330834
                                                         0.178617       0.032314
                                                         0.075145       0.006321
                                                         0.030287      -0.000019
                          1       5    4dxz              6.132625       1.515169
                                                         2.625196       0.650856
                                                         1.045457       1.132690
                                                         0.478316       0.330834
                                                         0.178617       0.032314
                                                         0.075145       0.006321
                                                         0.030287      -0.000019
                          1       5    4dy2              6.132625       0.874783
                                                         2.625196       0.375772
                                                         1.045457       0.653959
                                                         0.478316       0.191007
                                                         0.178617       0.018656
                                                         0.075145       0.003649
                                                         0.030287      -0.000011
                          1       5    4dyz              6.132625       1.515169
                                                         2.625196       0.650856
                                                         1.045457       1.132690
                                                         0.478316       0.330834
                                                         0.178617       0.032314
                                                         0.075145       0.006321
                                                         0.030287      -0.000019
                          1       5    4dz2              6.132625       0.874783
                                                         2.625196       0.375772
                                                         1.045457       0.653959
                                                         0.478316       0.191007
                                                         0.178617       0.018656
                                                         0.075145       0.003649
                                                         0.030287      -0.000011

     GTH Potential information for                                    GTH-PBE-q4

       Description:                       Goedecker-Teter-Hutter pseudopotential
                                           Goedecker et al., PRB 54, 1703 (1996)
                                          Hartwigsen et al., PRB 58, 3641 (1998)
                                                      Krack, TCA 114, 145 (2005)

       Gaussian exponent of the core charge distribution:               4.364419
       Electronic configuration (s p d ...):                               2   2

       Parameters of the local part of the GTH pseudopotential:

                          rloc        C1          C2          C3          C4
                        0.338471   -8.803674    1.339211

       Parameters of the non-local part of the GTH pseudopotential:

                   l      r(l)      h(i,j,l)

                   0    0.302576    9.622487
                   1    0.291507

  2. Atomic kind: O                                     Number of atoms:       4

     Orbital Basis Set                                           DZVP-MOLOPT-GTH

       Number of orbital shell sets:                                           1
       Number of orbital shells:                                               5
       Number of primitive Cartesian functions:                                7
       Number of Cartesian basis functions:                                   14
       Number of spherical basis functions:                                   13
       Norm type:                                                              2

       Normalised Cartesian orbitals:

                        Set   Shell   Orbital            Exponent    Coefficient

                          1       1    2s               12.015955      -0.284499
                                                         5.108150      -0.322498
                                                         2.048398       0.148191
                                                         0.832382       0.295475
                                                         0.352316       0.150829
                                                         0.142977       0.015788
                                                         0.046761      -0.000019

                          1       2    3s               12.015955       0.725622
                                                         5.108150       0.644384
                                                         2.048398      -0.157350
                                                         0.832382      -0.853528
                                                         0.352316       0.146068
                                                         0.142977       0.153978
                                                         0.046761       0.000658

                          1       3    3px              12.015955       1.192141
                                                         5.108150       1.354170
                                                         2.048398       0.897267
                                                         0.832382       0.408839
                                                         0.352316       0.116648
                                                         0.142977       0.022184
                                                         0.046761       0.000308
                          1       3    3py              12.015955       1.192141
                                                         5.108150       1.354170
                                                         2.048398       0.897267
                                                         0.832382       0.408839
                                                         0.352316       0.116648
                                                         0.142977       0.022184
                                                         0.046761       0.000308
                          1       3    3pz              12.015955       1.192141
                                                         5.108150       1.354170
                                                         2.048398       0.897267
                                                         0.832382       0.408839
                                                         0.352316       0.116648
                                                         0.142977       0.022184
                                                         0.046761       0.000308

                          1       4    4px              12.015955      -1.062381
                                                         5.108150      -1.285791
                                                         2.048398      -0.727000
                                                         0.832382      -0.522764
                                                         0.352316       0.182681
                                                         0.142977       0.087560
                                                         0.046761       0.000981
                          1       4    4py              12.015955      -1.062381
                                                         5.108150      -1.285791
                                                         2.048398      -0.727000
                                                         0.832382      -0.522764
                                                         0.352316       0.182681
                                                         0.142977       0.087560
                                                         0.046761       0.000981
                          1       4    4pz              12.015955      -1.062381
                                                         5.108150      -1.285791
                                                         2.048398      -0.727000
                                                         0.832382      -0.522764
                                                         0.352316       0.182681
                                                         0.142977       0.087560
                                                         0.046761       0.000981

                          1       5    4dx2             12.015955       1.125955
                                                         5.108150       1.160468
                                                         2.048398       0.999335
                                                         0.832382       0.756334
                                                         0.352316       0.048604
                                                         0.142977       0.010378
                                                         0.046761      -0.000027
                          1       5    4dxy             12.015955       1.950212
                                                         5.108150       2.009990
                                                         2.048398       1.730899
                                                         0.832382       1.310009
                                                         0.352316       0.084185
                                                         0.142977       0.017974
                                                         0.046761      -0.000046
                          1       5    4dxz             12.015955       1.950212
                                                         5.108150       2.009990
                                                         2.048398       1.730899
                                                         0.832382       1.310009
                                                         0.352316       0.084185
                                                         0.142977       0.017974
                                                         0.046761      -0.000046
                          1       5    4dy2             12.015955       1.125955
                                                         5.108150       1.160468
                                                         2.048398       0.999335
                                                         0.832382       0.756334
                                                         0.352316       0.048604
                                                         0.142977       0.010378
                                                         0.046761      -0.000027
                          1       5    4dyz             12.015955       1.950212
                                                         5.108150       2.009990
                                                         2.048398       1.730899
                                                         0.832382       1.310009
                                                         0.352316       0.084185
                                                         0.142977       0.017974
                                                         0.046761      -0.000046
                          1       5    4dz2             12.015955       1.125955
                                                         5.108150       1.160468
                                                         2.048398       0.999335
                                                         0.832382       0.756334
                                                         0.352316       0.048604
                                                         0.142977       0.010378
                                                         0.046761      -0.000027

     GTH Potential information for                                    GTH-PBE-q6

       Description:                       Goedecker-Teter-Hutter pseudopotential
                                           Goedecker et al., PRB 54, 1703 (1996)
                                          Hartwigsen et al., PRB 58, 3641 (1998)
                                                      Krack, TCA 114, 145 (2005)

       Gaussian exponent of the core charge distribution:               8.360253
       Electronic configuration (s p d ...):                               2   4

       Parameters of the local part of the GTH pseudopotential:

                          rloc        C1          C2          C3          C4
                        0.244554  -16.667215    2.487311

       Parameters of the non-local part of the GTH pseudopotential:

                   l      r(l)      h(i,j,l)

                   0    0.220956   18.337458
                   1    0.211332

  3. Atomic kind: N                                     Number of atoms:       2

     Orbital Basis Set                                           DZVP-MOLOPT-GTH

       Number of orbital shell sets:                                           1
       Number of orbital shells:                                               5
       Number of primitive Cartesian functions:                                7
       Number of Cartesian basis functions:                                   14
       Number of spherical basis functions:                                   13
       Norm type:                                                              2

       Normalised Cartesian orbitals:

                        Set   Shell   Orbital            Exponent    Coefficient

                          1       1    2s                9.042730      -0.237404
                                                         3.882225      -0.265910
                                                         1.512880       0.102064
                                                         0.586631       0.295369
                                                         0.222851       0.088647
                                                         0.084583       0.003860
                                                         0.039194       0.000722

                          1       2    3s                9.042730       0.259152
                                                         3.882225       0.251432
                                                         1.512880      -0.043896
                                                         0.586631      -0.328079
                                                         0.222851       0.175857
                                                         0.084583       0.069169
                                                         0.039194       0.004207

                          1       3    3px               9.042730       0.822162
                                                         3.882225       0.990771
                                                         1.512880       0.665657
                                                         0.586631       0.321705
                                                         0.222851       0.063706
                                                         0.084583       0.004155
                                                         0.039194      -0.000005
                          1       3    3py               9.042730       0.822162
                                                         3.882225       0.990771
                                                         1.512880       0.665657
                                                         0.586631       0.321705
                                                         0.222851       0.063706
                                                         0.084583       0.004155
                                                         0.039194      -0.000005
                          1       3    3pz               9.042730       0.822162
                                                         3.882225       0.990771
                                                         1.512880       0.665657
                                                         0.586631       0.321705
                                                         0.222851       0.063706
                                                         0.084583       0.004155
                                                         0.039194      -0.000005

                          1       4    4px               9.042730      -0.251449
                                                         3.882225      -0.215479
                                                         1.512880      -0.200519
                                                         0.586631      -0.125283
                                                         0.222851       0.136219
                                                         0.084583       0.034362
                                                         0.039194       0.000879
                          1       4    4py               9.042730      -0.251449
                                                         3.882225      -0.215479
                                                         1.512880      -0.200519
                                                         0.586631      -0.125283
                                                         0.222851       0.136219
                                                         0.084583       0.034362
                                                         0.039194       0.000879
                          1       4    4pz               9.042730      -0.251449
                                                         3.882225      -0.215479
                                                         1.512880      -0.200519
                                                         0.586631      -0.125283
                                                         0.222851       0.136219
                                                         0.084583       0.034362
                                                         0.039194       0.000879

                          1       5    4dx2              9.042730       1.099742
                                                         3.882225       0.532064
                                                         1.512880       0.873643
                                                         0.586631       0.456348
                                                         0.222851       0.017840
                                                         0.084583      -0.000857
                                                         0.039194      -0.000086
                          1       5    4dxy              9.042730       1.904809
                                                         3.882225       0.921562
                                                         1.512880       1.513195
                                                         0.586631       0.790419
                                                         0.222851       0.030900
                                                         0.084583      -0.001484
                                                         0.039194      -0.000150
                          1       5    4dxz              9.042730       1.904809
                                                         3.882225       0.921562
                                                         1.512880       1.513195
                                                         0.586631       0.790419
                                                         0.222851       0.030900
                                                         0.084583      -0.001484
                                                         0.039194      -0.000150
                          1       5    4dy2              9.042730       1.099742
                                                         3.882225       0.532064
                                                         1.512880       0.873643
                                                         0.586631       0.456348
                                                         0.222851       0.017840
                                                         0.084583      -0.000857
                                                         0.039194      -0.000086
                          1       5    4dyz              9.042730       1.904809
                                                         3.882225       0.921562
                                                         1.512880       1.513195
                                                         0.586631       0.790419
                                                         0.222851       0.030900
                                                         0.084583      -0.001484
                                                         0.039194      -0.000150
                          1       5    4dz2              9.042730       1.099742
                                                         3.882225       0.532064
                                                         1.512880       0.873643
                                                         0.586631       0.456348
                                                         0.222851       0.017840
                                                         0.084583      -0.000857
                                                         0.039194      -0.000086

     GTH Potential information for                                    GTH-PBE-q5

       Description:                       Goedecker-Teter-Hutter pseudopotential
                                           Goedecker et al., PRB 54, 1703 (1996)
                                          Hartwigsen et al., PRB 58, 3641 (1998)
                                                      Krack, TCA 114, 145 (2005)

       Gaussian exponent of the core charge distribution:               6.208322
       Electronic configuration (s p d ...):                               2   3

       Parameters of the local part of the GTH pseudopotential:

                          rloc        C1          C2          C3          C4
                        0.283791  -12.415226    1.868096

       Parameters of the non-local part of the GTH pseudopotential:

                   l      r(l)      h(i,j,l)

                   0    0.255405   13.630263
                   1    0.245495

  4. Atomic kind: H                                     Number of atoms:      11

     Orbital Basis Set                                           DZVP-MOLOPT-GTH

       Number of orbital shell sets:                                           1
       Number of orbital shells:                                               3
       Number of primitive Cartesian functions:                                7
       Number of Cartesian basis functions:                                    5
       Number of spherical basis functions:                                    5
       Norm type:                                                              2

       Normalised Cartesian orbitals:

                        Set   Shell   Orbital            Exponent    Coefficient

                          1       1    2s               11.478000       0.129129
                                                         3.700759       0.177012
                                                         1.446884       0.141285
                                                         0.716815       0.245670
                                                         0.247919       0.094768
                                                         0.066918       0.004062
                                                         0.021708      -0.000053

                          1       2    3s               11.478000      -0.079256
                                                         3.700759      -0.152992
                                                         1.446884       0.015066
                                                         0.716815      -0.331234
                                                         0.247919       0.210690
                                                         0.066918       0.058630
                                                         0.021708      -0.003429

                          1       3    3px              11.478000       0.325290
                                                         3.700759       0.187466
                                                         1.446884       0.443300
                                                         0.716815       0.267738
                                                         0.247919       0.088285
                                                         0.066918       0.019092
                                                         0.021708       0.000629
                          1       3    3py              11.478000       0.325290
                                                         3.700759       0.187466
                                                         1.446884       0.443300
                                                         0.716815       0.267738
                                                         0.247919       0.088285
                                                         0.066918       0.019092
                                                         0.021708       0.000629
                          1       3    3pz              11.478000       0.325290
                                                         3.700759       0.187466
                                                         1.446884       0.443300
                                                         0.716815       0.267738
                                                         0.247919       0.088285
                                                         0.066918       0.019092
                                                         0.021708       0.000629

     GTH Potential information for                                    GTH-PBE-q1

       Description:                       Goedecker-Teter-Hutter pseudopotential
                                           Goedecker et al., PRB 54, 1703 (1996)
                                          Hartwigsen et al., PRB 58, 3641 (1998)
                                                      Krack, TCA 114, 145 (2005)

       Gaussian exponent of the core charge distribution:              12.500000
       Electronic configuration (s p d ...):                                   1

       Parameters of the local part of the GTH pseudopotential:

                          rloc        C1          C2          C3          C4
                        0.200000   -4.178900    0.724463


 MOLECULE KIND INFORMATION


 All atoms are their own molecule, skipping detailed information


 TOTAL NUMBERS AND MAXIMUM NUMBERS

  Total number of            - Atomic kinds:                                   4
                             - Atoms:                                         29
                             - Shell sets:                                    29
                             - Shells:                                       123
                             - Primitive Cartesian functions:                203
                             - Cartesian basis functions:                    307
                             - Spherical basis functions:                    289

  Maximum angular momentum of- Orbital basis functions:                        2
                             - Local part of the GTH pseudopotential:          2
                             - Non-local part of the GTH pseudopotential:      0


 MODULE QUICKSTEP:  ATOMIC COORDINATES IN angstrom

  Atom  Kind  Element       X           Y           Z          Z(eff)       Mass

       1     1 C    6    6.413500    8.064000   10.690000      4.00      12.0107
       2     1 C    6    7.483500    8.734000   11.150000      4.00      12.0107
       3     1 C    6    8.593500    9.364000   10.490000      4.00      12.0107
       4     1 C    6    8.513500    9.464000    9.090000      4.00      12.0107
       5     1 C    6    9.713500    9.844000   11.180000      4.00      12.0107
       6     1 C    6    9.583500   10.014000    8.390000      4.00      12.0107
       7     1 C    6   10.813500   10.354000   10.480000      4.00      12.0107
       8     1 C    6   10.773500   10.364000    9.070000      4.00      12.0107
       9     2 O    8   11.923500   10.684000    8.420000      6.00      15.9994
      10     1 C    6    4.973500    6.984000    9.490000      4.00      12.0107
      11     1 C    6    5.233500    7.834000   11.550000      4.00      12.0107
      12     3 N    7    6.193500    7.444000    9.450000      5.00      14.0067
      13     2 O    8    4.973500    8.224000   12.690000      6.00      15.9994
      14     3 N    7    4.333500    7.214000   10.690000      5.00      14.0067
      15     4 H    1    7.453500    8.914000   12.210000      1.00       1.0079
      16     4 H    1    7.593500    9.204000    8.590000      1.00       1.0079
      17     4 H    1    9.723500    9.804000   12.260000      1.00       1.0079
      18     4 H    1    9.533500    9.934000    7.310000      1.00       1.0079
      19     4 H    1   11.703500   10.684000   10.990000      1.00       1.0079
      20     4 H    1   12.643500   10.854000    9.030000      1.00       1.0079
      21     4 H    1    4.503500    6.466000    8.654000      1.00       1.0079
      22     4 H    1    3.420500    6.912000   10.999000      1.00       1.0079
      23     1 C    6   15.873500   12.804000    9.690000      4.00      12.0107
      24     1 C    6   14.473500   12.224000    9.890000      4.00      12.0107
      25     2 O    8   14.253500   11.004000    9.720000      6.00      15.9994
      26     2 O    8   13.603500   13.074000   10.180000      6.00      15.9994
      27     4 H    1   15.863500   13.534000    8.880000      1.00       1.0079
      28     4 H    1   16.093500   13.384000   10.580000      1.00       1.0079
      29     4 H    1   16.579500   11.998000    9.486000      1.00       1.0079




 SCF PARAMETERS         Density guess:                                   RESTART
                        --------------------------------------------------------
                        max_scf:                                             300
                        max_scf_history:                                       0
                        max_diis:                                              4
                        --------------------------------------------------------
                        eps_scf:                                        1.00E-06
                        eps_scf_history:                                0.00E+00
                        eps_diis:                                       1.00E-01
                        eps_eigval:                                     1.00E-05
                        --------------------------------------------------------
                        level_shift [a.u.]:                                 0.00
                        --------------------------------------------------------
                        No outer SCF

 PW_GRID| Information for grid number                                          1
 PW_GRID| Grid distributed over                                   192 processors
 PW_GRID| Real space group dimensions                                   192    1
 PW_GRID| the grid is blocked:                                                NO
 PW_GRID| Cutoff [a.u.]                                                    140.0
 PW_GRID| spherical cutoff:                                                   NO
 PW_GRID|   Bounds   1           -108     107                Points:         216
 PW_GRID|   Bounds   2           -108     107                Points:         216
 PW_GRID|   Bounds   3           -108     107                Points:         216
 PW_GRID| Volume element (a.u.^3)  0.5357E-02     Volume (a.u.^3)     53986.6767
 PW_GRID| Grid span                                                    FULLSPACE
 PW_GRID|   Distribution                         Average         Max         Min
 PW_GRID|   G-Vectors                            52488.0       52488       52488
 PW_GRID|   G-Rays                                 243.0         243         243
 PW_GRID|   Real Space Points                    52488.0       93312       46656

 PW_GRID| Information for grid number                                          2
 PW_GRID| Grid distributed over                                   192 processors
 PW_GRID| Real space group dimensions                                    12   16
 PW_GRID| the grid is blocked:                                                NO
 PW_GRID| Cutoff [a.u.]                                                     46.7
 PW_GRID| spherical cutoff:                                                   NO
 PW_GRID|   Bounds   1            -60      59                Points:         120
 PW_GRID|   Bounds   2            -60      59                Points:         120
 PW_GRID|   Bounds   3            -60      59                Points:         120
 PW_GRID| Volume element (a.u.^3)  0.3124E-01     Volume (a.u.^3)     53986.6767
 PW_GRID| Grid span                                                    FULLSPACE
 PW_GRID|   Distribution                         Average         Max         Min
 PW_GRID|   G-Vectors                             9000.0        9120        8880
 PW_GRID|   G-Rays                                  75.0          76          74
 PW_GRID|   Real Space Points                     9000.0        9600        8400

 PW_GRID| Information for grid number                                          3
 PW_GRID| Grid distributed over                                   192 processors
 PW_GRID| Real space group dimensions                                    12   16
 PW_GRID| the grid is blocked:                                                NO
 PW_GRID| Cutoff [a.u.]                                                     15.6
 PW_GRID| spherical cutoff:                                                   NO
 PW_GRID|   Bounds   1            -36      35                Points:          72
 PW_GRID|   Bounds   2            -36      35                Points:          72
 PW_GRID|   Bounds   3            -36      35                Points:          72
 PW_GRID| Volume element (a.u.^3)  0.1446         Volume (a.u.^3)     53986.6767
 PW_GRID| Grid span                                                    FULLSPACE
 PW_GRID|   Distribution                         Average         Max         Min
 PW_GRID|   G-Vectors                             1944.0        2016        1872
 PW_GRID|   G-Rays                                  27.0          28          26
 PW_GRID|   Real Space Points                     1944.0        2160        1728

 PW_GRID| Information for grid number                                          4
 PW_GRID| Grid distributed over                                   192 processors
 PW_GRID| Real space group dimensions                                    12   16
 PW_GRID| the grid is blocked:                                                NO
 PW_GRID| Cutoff [a.u.]                                                      5.2
 PW_GRID| spherical cutoff:                                                   NO
 PW_GRID|   Bounds   1            -20      19                Points:          40
 PW_GRID|   Bounds   2            -20      19                Points:          40
 PW_GRID|   Bounds   3            -20      19                Points:          40
 PW_GRID| Volume element (a.u.^3)  0.8435         Volume (a.u.^3)     53986.6767
 PW_GRID| Grid span                                                    FULLSPACE
 PW_GRID|   Distribution                         Average         Max         Min
 PW_GRID|   G-Vectors                              333.3         360         280
 PW_GRID|   G-Rays                                   8.3           9           7
 PW_GRID|   Real Space Points                      333.3         480         240

 POISSON| Solver                                                         WAVELET
 POISSON| Wavelet| Scaling function                                           40
 POISSON| Periodicity                                                       NONE

 RS_GRID| Information for grid number                                          1
 RS_GRID|   Bounds   1           -108     107                Points:         216
 RS_GRID|   Bounds   2           -108     107                Points:         216
 RS_GRID|   Bounds   3           -108     107                Points:         216
 RS_GRID| Real space distribution over                                  4 groups
 RS_GRID| Real space distribution along direction                              1
 RS_GRID| Border size                                                         24
 RS_GRID| Real space distribution over                                  6 groups
 RS_GRID| Real space distribution along direction                              2
 RS_GRID| Border size                                                         24
 RS_GRID| Real space distribution over                                  8 groups
 RS_GRID| Real space distribution along direction                              3
 RS_GRID| Border size                                                         24
 RS_GRID|   Distribution                         Average         Max         Min
 RS_GRID|   Planes                                 102.0         102         102
 RS_GRID|   Distribution                         Average         Max         Min
 RS_GRID|   Planes                                  84.0          84          84
 RS_GRID|   Distribution                         Average         Max         Min
 RS_GRID|   Planes                                  75.0          75          75

 RS_GRID| Information for grid number                                          2
 RS_GRID|   Bounds   1            -60      59                Points:         120
 RS_GRID|   Bounds   2            -60      59                Points:         120
 RS_GRID|   Bounds   3            -60      59                Points:         120
 RS_GRID| Real space distribution over                                  4 groups
 RS_GRID| Real space distribution along direction                              1
 RS_GRID| Border size                                                         24
 RS_GRID| Real space distribution over                                  6 groups
 RS_GRID| Real space distribution along direction                              2
 RS_GRID| Border size                                                         24
 RS_GRID| Real space distribution over                                  8 groups
 RS_GRID| Real space distribution along direction                              3
 RS_GRID| Border size                                                         24
 RS_GRID|   Distribution                         Average         Max         Min
 RS_GRID|   Planes                                  78.0          78          78
 RS_GRID|   Distribution                         Average         Max         Min
 RS_GRID|   Planes                                  68.0          68          68
 RS_GRID|   Distribution                         Average         Max         Min
 RS_GRID|   Planes                                  63.0          63          63

 RS_GRID| Information for grid number                                          3
 RS_GRID|   Bounds   1            -36      35                Points:          72
 RS_GRID|   Bounds   2            -36      35                Points:          72
 RS_GRID|   Bounds   3            -36      35                Points:          72
 RS_GRID| Real space fully replicated
 RS_GRID| Group size                                                           1

 RS_GRID| Information for grid number                                          4
 RS_GRID|   Bounds   1            -20      19                Points:          40
 RS_GRID|   Bounds   2            -20      19                Points:          40
 RS_GRID|   Bounds   3            -20      19                Points:          40
 RS_GRID| Real space fully replicated
 RS_GRID| Group size                                                           1

 Number of electrons:                                                         94
 Number of occupied orbitals:                                                 47
 Number of molecular orbitals:                                                47

 Number of orbital functions:                                                289
 Number of independent orbital functions:                                    289

 Extrapolation method: initial_guess

 *** WARNING in qs_initial_guess.F:263 :: User requested to restart the   ***
 *** wavefunction from the file named: SP-RESTART.wfn. This file does not ***
 *** exist. Please check the existence of the file or change properly the ***
 *** value of the keyword WFN_RESTART_FILE_NAME. Calculation continues    ***
 *** using ATOMIC GUESS.                                                  ***


 Atomic guess: The first density matrix is obtained in terms of atomic orbitals
               and electronic configurations assigned to each atomic kind

 Guess for atomic kind: C

 Electronic structure
    Total number of core electrons                                          2.00
    Total number of valence electrons                                       4.00
    Total number of electrons                                               6.00
    Multiplicity                                                   not specified
    S   [  2.00] 2.00
    P      2.00


 *******************************************************************************
                  Iteration          Convergence                     Energy [au]
 *******************************************************************************
                          1        0.398502                      -5.115479719898
                          2        0.205015                      -5.202300061893
                          3        0.140452E-02                  -5.228968043896
                          4        0.598853E-04                  -5.228969181319
                          5        0.331454E-04                  -5.228969182739
                          6        0.231280E-04                  -5.228969183061
                          7        0.309326E-07                  -5.228969183366

 Energy components [Hartree]           Total Energy ::           -5.228969183366
                                        Band Energy ::           -1.112012670394
                                     Kinetic Energy ::            3.667653037961
                                   Potential Energy ::           -8.896622221327
                                      Virial (-V/T) ::            2.425698976769
                                        Core Energy ::           -8.354438134793
                                          XC Energy ::           -1.430507557558
                                     Coulomb Energy ::            4.555976508984
                       Total Pseudopotential Energy ::          -12.054077251973
                       Local Pseudopotential Energy ::          -12.576064048928
                    Nonlocal Pseudopotential Energy ::            0.521986796955
                                        Confinement ::            0.319860792185

 Orbital energies  State     L     Occupation   Energy[a.u.]          Energy[eV]

                       1     0          2.000      -0.418938          -11.399892

                       1     1          2.000      -0.137068           -3.729810


 Total Electron Density at R=0:                                         0.015856

 Guess for atomic kind: O

 Electronic structure
    Total number of core electrons                                          2.00
    Total number of valence electrons                                       6.00
    Total number of electrons                                               8.00
    Multiplicity                                                   not specified
    S   [  2.00] 2.00
    P      4.00


 *******************************************************************************
                  Iteration          Convergence                     Energy [au]
 *******************************************************************************
                          1         1.59807                     -14.860601438858
                          2         2.10429                     -14.911792617606
                          3        0.907503E-01                 -15.655516752884
                          4        0.288621E-02                 -15.656865750737
                          5        0.119119E-02                 -15.656866873291
                          6        0.740468E-03                 -15.656867014560
                          7        0.292240E-04                 -15.656867103307
                          8        0.185245E-06                 -15.656867103452

 Energy components [Hartree]           Total Energy ::          -15.656867103452
                                        Band Energy ::           -3.000198979664
                                     Kinetic Energy ::           11.759972915296
                                   Potential Energy ::          -27.416840018748
                                      Virial (-V/T) ::            2.331369316598
                                        Core Energy ::          -26.140717222249
                                          XC Energy ::           -3.154051243207
                                     Coulomb Energy ::           13.637901362004
                       Total Pseudopotential Energy ::          -37.935784258805
                       Local Pseudopotential Energy ::          -39.218909979177
                    Nonlocal Pseudopotential Energy ::            1.283125720372
                                        Confinement ::            0.350941212594

 Orbital energies  State     L     Occupation   Energy[a.u.]          Energy[eV]

                       1     0          2.000      -0.864472          -23.523467

                       1     1          4.000      -0.317814           -8.648158


 Total Electron Density at R=0:                                         0.000068

 Guess for atomic kind: N

 Electronic structure
    Total number of core electrons                                          2.00
    Total number of valence electrons                                       5.00
    Total number of electrons                                               7.00
    Multiplicity                                                   not specified
    S   [  2.00] 2.00
    P      3.00


 *******************************************************************************
                  Iteration          Convergence                     Energy [au]
 *******************************************************************************
                          1        0.735612                      -9.224983179450
                          2        0.816408                      -9.321325405028
                          3        0.140362E-01                  -9.546007465406
                          4        0.294275E-03                  -9.546075698750
                          5        0.137795E-03                  -9.546075722080
                          6        0.895565E-04                  -9.546075725864
                          7        0.253318E-06                  -9.546075728631

 Energy components [Hartree]           Total Energy ::           -9.546075728631
                                        Band Energy ::           -2.056108887189
                                     Kinetic Energy ::            6.742762275832
                                   Potential Energy ::          -16.288838004463
                                      Virial (-V/T) ::            2.415751488503
                                        Core Energy ::          -15.541531078307
                                          XC Energy ::           -2.162814776482
                                     Coulomb Energy ::            8.158270126158
                       Total Pseudopotential Energy ::          -22.321549971218
                       Local Pseudopotential Energy ::          -23.252175720162
                    Nonlocal Pseudopotential Energy ::            0.930625748944
                                        Confinement ::            0.372566170783

 Orbital energies  State     L     Occupation   Energy[a.u.]          Energy[eV]

                       1     0          2.000      -0.663703          -18.060281

                       1     1          3.000      -0.242901           -6.609669


 Total Electron Density at R=0:                                         0.000012

 Guess for atomic kind: H

 Electronic structure
    Total number of core electrons                                          0.00
    Total number of valence electrons                                       1.00
    Total number of electrons                                               1.00
    Multiplicity                                                   not specified
    S      1.00


 *******************************************************************************
                  Iteration          Convergence                     Energy [au]
 *******************************************************************************
                          1        0.437545E-02                  -0.424159432110
                          2        0.531356E-03                  -0.424178438213
                          3        0.259176E-06                  -0.424178722480

 Energy components [Hartree]           Total Energy ::           -0.424178722480
                                        Band Energy ::           -0.199015229016
                                     Kinetic Energy ::            0.464007633961
                                   Potential Energy ::           -0.888186356441
                                      Virial (-V/T) ::            1.914163240935
                                        Core Energy ::           -0.479160803564
                                          XC Energy ::           -0.244352904054
                                     Coulomb Energy ::            0.299334985138
                       Total Pseudopotential Energy ::           -0.962295316385
                       Local Pseudopotential Energy ::           -0.962295316385
                    Nonlocal Pseudopotential Energy ::            0.000000000000
                                        Confinement ::            0.191268788606

 Orbital energies  State     L     Occupation   Energy[a.u.]          Energy[eV]

                       1     0          1.000      -0.199015           -5.415480


 Total Electron Density at R=0:                                         0.242907
 Re-scaling the density matrix to get the right number of electrons
                  # Electrons              Trace(P)               Scaling factor
                           94                93.000                        1.011


 SCF WAVEFUNCTION OPTIMIZATION

  ----------------------------------- OT ---------------------------------------
  Minimizer      : DIIS                : direct inversion
                                         in the iterative subspace
                                         using   7 DIIS vectors
                                         safer DIIS on
  Preconditioner : FULL_SINGLE_INVERSE : inversion of 
                                         H + eS - 2*(Sc)(c^T*H*c+const)(Sc)^T
  Precond_solver : DEFAULT
  stepsize       :    0.15000000                  energy_gap     :    0.08000000
  eps_taylor     :   0.10000E-15                  max_taylor     :             4
  ----------------------------------- OT ---------------------------------------

  Step     Update method      Time    Convergence         Total energy    Change
  ------------------------------------------------------------------------------
     1 OT DIIS     0.15E+00    0.8     0.07422322      -148.7864212792 -1.49E+02
     2 OT DIIS     0.15E+00    0.4     0.07914857      -153.0691392025 -4.28E+00
     3 OT DIIS     0.15E+00    0.4     0.05126464      -155.6045889535 -2.54E+00
     4 OT DIIS     0.15E+00    0.4     0.02789615      -157.2461601977 -1.64E+00
     5 OT DIIS     0.15E+00    0.4     0.02163663      -158.0022287676 -7.56E-01
     6 OT DIIS     0.15E+00    0.4     0.01527421      -158.2709336616 -2.69E-01
     7 OT DIIS     0.15E+00    0.4     0.00869517      -158.4222681423 -1.51E-01
     8 OT DIIS     0.15E+00    0.4     0.00647299      -158.5133263962 -9.11E-02
     9 OT DIIS     0.15E+00    0.4     0.00524921      -158.5745771072 -6.13E-02
    10 OT DIIS     0.15E+00    0.4     0.00353645      -158.6122115116 -3.76E-02
    11 OT DIIS     0.15E+00    0.4     0.00270144      -158.6399618268 -2.78E-02
    12 OT DIIS     0.15E+00    0.4     0.00223637      -158.6548321996 -1.49E-02
    13 OT DIIS     0.15E+00    0.4     0.00173036      -158.6673367176 -1.25E-02
    14 OT DIIS     0.15E+00    0.4     0.00158358      -158.6751144778 -7.78E-03
    15 OT DIIS     0.15E+00    0.4     0.00130960      -158.6798457315 -4.73E-03
    16 OT DIIS     0.15E+00    0.4     0.00103756      -158.6834868945 -3.64E-03
    17 OT DIIS     0.15E+00    0.4     0.00088679      -158.6868637333 -3.38E-03
    18 OT DIIS     0.15E+00    0.4     0.00082685      -158.6883744912 -1.51E-03
    19 OT DIIS     0.15E+00    0.4     0.00068241      -158.6903748012 -2.00E-03
    20 OT DIIS     0.15E+00    0.4     0.00062574      -158.6915646310 -1.19E-03
    21 OT DIIS     0.15E+00    0.4     0.00056180      -158.6927538739 -1.19E-03
    22 OT DIIS     0.15E+00    0.4     0.00053513      -158.6937398205 -9.86E-04
    23 OT DIIS     0.15E+00    0.4     0.00050575      -158.6945989719 -8.59E-04
    24 OT DIIS     0.15E+00    0.4     0.00044944      -158.6955250935 -9.26E-04
    25 OT DIIS     0.15E+00    0.4     0.00042007      -158.6964639045 -9.39E-04
    26 OT DIIS     0.15E+00    0.4     0.00039863      -158.6972380656 -7.74E-04
    27 OT DIIS     0.15E+00    0.4     0.00035841      -158.6978418311 -6.04E-04
    28 OT DIIS     0.15E+00    0.4     0.00034047      -158.6984448238 -6.03E-04
    29 OT DIIS     0.15E+00    0.4     0.00031388      -158.6990410180 -5.96E-04
    30 OT DIIS     0.15E+00    0.4     0.00028751      -158.6994149228 -3.74E-04
    31 OT DIIS     0.15E+00    0.4     0.00027383      -158.6997639992 -3.49E-04
    32 OT DIIS     0.15E+00    0.4     0.00024803      -158.7000365521 -2.73E-04
    33 OT DIIS     0.15E+00    0.4     0.00022946      -158.7002923741 -2.56E-04
    34 OT DIIS     0.15E+00    0.4     0.00022804      -158.7005301767 -2.38E-04
    35 OT DIIS     0.15E+00    0.4     0.00021344      -158.7006451025 -1.15E-04
    36 OT DIIS     0.15E+00    0.4     0.00020729      -158.7007825459 -1.37E-04
    37 OT DIIS     0.15E+00    0.4     0.00020337      -158.7008655220 -8.30E-05
    38 OT DIIS     0.15E+00    0.4     0.00020244      -158.7009268189 -6.13E-05
    39 OT SD       0.15E+00    0.4     0.00020208      -158.7009458008 -1.90E-05
    40 OT SD       0.15E+00    0.4     0.00020411      -158.7010292118 -8.34E-05
    41 OT SD       0.15E+00    0.4     0.00020768      -158.7011142041 -8.50E-05
    42 OT SD       0.15E+00    0.5     0.00021447      -158.7012012404 -8.70E-05
    43 OT SD       0.15E+00    0.5     0.00023093      -158.7012899246 -8.87E-05
    44 OT SD       0.15E+00    0.5     0.00027811      -158.7013767135 -8.68E-05
    45 OT SD       0.15E+00    0.5     0.00040864      -158.7014456012 -6.89E-05
    46 OT SD       0.15E+00    0.5     0.00072135      -158.7014302674  1.53E-05
    47 OT SD       0.15E+00    0.5     0.00139825      -158.7010576256  3.73E-04
    48 OT DIIS     0.15E+00    0.5     0.00280248      -158.6991880818  1.87E-03
    49 OT DIIS     0.15E+00    0.5     0.00028070      -158.7001584916 -9.70E-04
    50 OT SD       0.15E+00    0.5     0.00019419      -158.7001992820 -4.08E-05
    51 OT SD       0.15E+00    0.5     0.00018826      -158.7002502890 -5.10E-05
    52 OT SD       0.15E+00    0.5     0.00023339      -158.7002859777 -3.57E-05
    53 OT SD       0.15E+00    0.5     0.00038289      -158.7002959071 -9.93E-06
    54 OT DIIS     0.15E+00    0.5     0.00079850      -158.7001846430  1.11E-04
    55 OT DIIS     0.15E+00    0.4     0.00013132      -158.7004364518 -2.52E-04
    56 OT DIIS     0.15E+00    0.4     0.00012178      -158.7005008231 -6.44E-05
    57 OT DIIS     0.15E+00    0.5     0.00012269      -158.7005383780 -3.76E-05
    58 OT DIIS     0.15E+00    0.5     0.00011226      -158.7005697889 -3.14E-05
    59 OT DIIS     0.15E+00    0.5     0.00011240      -158.7005958061 -2.60E-05
    60 OT SD       0.15E+00    0.5     0.00011174      -158.7006137931 -1.80E-05
    61 OT SD       0.15E+00    0.5     0.00011387      -158.7006393153 -2.55E-05
    62 OT SD       0.15E+00    0.5     0.00011777      -158.7006655939 -2.63E-05
    63 OT SD       0.15E+00    0.4     0.00012894      -158.7006923818 -2.68E-05
    64 OT SD       0.15E+00    0.5     0.00017185      -158.7007173720 -2.50E-05
    65 OT SD       0.15E+00    0.5     0.00031903      -158.7007262044 -8.83E-06
    66 OT SD       0.15E+00    0.5     0.00072535      -158.7006321775  9.40E-05
    67 OT DIIS     0.15E+00    0.4     0.00176222      -158.6999125913  7.20E-04
    68 OT DIIS     0.15E+00    0.5     0.00010926      -158.7003550294 -4.42E-04
    69 OT SD       0.15E+00    0.5     0.00009134      -158.7003563285 -1.30E-06
    70 OT SD       0.15E+00    0.5     0.00010144      -158.7003687657 -1.24E-05
    71 OT SD       0.15E+00    0.4     0.00016778      -158.7003752290 -6.46E-06
    72 OT DIIS     0.15E+00    0.5     0.00036984      -158.7003543901  2.08E-05
    73 OT DIIS     0.15E+00    0.5     0.00007187      -158.7003662790 -1.19E-05
    74 OT DIIS     0.15E+00    0.5     0.00006953      -158.7004028621 -3.66E-05
    75 OT DIIS     0.15E+00    0.4     0.00006037      -158.7004107915 -7.93E-06
    76 OT DIIS     0.15E+00    0.5     0.00005486      -158.7004257788 -1.50E-05
    77 OT DIIS     0.15E+00    0.4     0.00004788      -158.7004532459 -2.75E-05
    78 OT DIIS     0.15E+00    0.5     0.00004368      -158.7004785018 -2.53E-05
    79 OT DIIS     0.15E+00    0.4     0.00004400      -158.7004951951 -1.67E-05
    80 OT DIIS     0.15E+00    0.4     0.00002952      -158.7005184394 -2.32E-05
    81 OT DIIS     0.15E+00    0.4     0.00003123      -158.7005229619 -4.52E-06
    82 OT DIIS     0.15E+00    0.5     0.00002537      -158.7005283139 -5.35E-06
    83 OT DIIS     0.15E+00    0.4     0.00002164      -158.7005300921 -1.78E-06
    84 OT DIIS     0.15E+00    0.4     0.00002123      -158.7005324357 -2.34E-06
    85 OT DIIS     0.15E+00    0.5     0.00001810      -158.7005347307 -2.29E-06
    86 OT DIIS     0.15E+00    0.5     0.00001701      -158.7005363345 -1.60E-06
    87 OT DIIS     0.15E+00    0.4     0.00001713      -158.7005373251 -9.91E-07
    88 OT DIIS     0.15E+00    0.5     0.00001537      -158.7005385930 -1.27E-06
    89 OT DIIS     0.15E+00    0.5     0.00001533      -158.7005396590 -1.07E-06
    90 OT DIIS     0.15E+00    0.5     0.00001481      -158.7005406089 -9.50E-07
    91 OT DIIS     0.15E+00    0.4     0.00001453      -158.7005411460 -5.37E-07
    92 OT DIIS     0.15E+00    0.4     0.00001428      -158.7005418292 -6.83E-07
    93 OT DIIS     0.15E+00    0.5     0.00001407      -158.7005423060 -4.77E-07
    94 OT DIIS     0.15E+00    0.5     0.00001404      -158.7005425928 -2.87E-07
    95 OT SD       0.15E+00    0.5     0.00001404      -158.7005427001 -1.07E-07
    96 OT SD       0.15E+00    0.4     0.00001418      -158.7005431017 -4.02E-07
[...]
     28       H      4       1.000          0.554                         0.446
     29       H      4       1.000          0.555                         0.445

  Total Charge                                                           -0.967
 !-----------------------------------------------------------------------------!

 ENERGY| Total FORCE_EVAL ( QS ) energy (a.u.):             -158.700543528696386


 -------------------------------------------------------------------------------
 -                                                                             -
 -                                DBCSR STATISTICS                             -
 -                                                                             -
 -------------------------------------------------------------------------------
 COUNTER                                    TOTAL       BLAS       SMM       ACC
 flops     5 x    15 x    15                49500       0.0%    100.0%      0.0%
 flops     5 x    15 x    32                52800       0.0%    100.0%      0.0%
 flops     5 x    32 x    15                52800       0.0%    100.0%      0.0%
 flops    13 x    15 x    15               210600       0.0%    100.0%      0.0%
 flops    13 x    32 x    15               224640       0.0%    100.0%      0.0%
 flops    13 x    15 x    32               224640       0.0%    100.0%      0.0%
 flops     5 x    32 x    32               225280       0.0%    100.0%      0.0%
 flops    13 x    32 x    32               958464       0.0%    100.0%      0.0%
 flops    25 x    15 x    10              2130000       0.0%    100.0%      0.0%
 flops    25 x    15 x     5              2662500       0.0%    100.0%      0.0%
 flops    25 x    32 x    10              4544000       0.0%    100.0%      0.0%
 flops    15 x    15 x    10              5076000       0.0%    100.0%      0.0%
 flops    25 x    32 x     5              5680000       0.0%    100.0%      0.0%
 flops    15 x    15 x     5              6345000       0.0%    100.0%      0.0%
 flops     5 x     5 x    15              7078500       0.0%    100.0%      0.0%
 flops    25 x    15 x    15              7908750       0.0%    100.0%      0.0%
 flops    15 x    15 x    15              8525250       0.0%    100.0%      0.0%
 flops    36 x    15 x    10              9201600       0.0%    100.0%      0.0%
 flops    32 x    15 x    10             10809600       0.0%    100.0%      0.0%
 flops    15 x    32 x    10             10828800       0.0%    100.0%      0.0%
 flops    36 x    15 x     5             11502000       0.0%    100.0%      0.0%
 flops    39 x    15 x    10             13291200       0.0%    100.0%      0.0%
 flops    32 x    15 x     5             13512000       0.0%    100.0%      0.0%
 flops    15 x    32 x     5             13536000       0.0%    100.0%      0.0%
 flops     5 x     5 x    32             15100800       0.0%    100.0%      0.0%
 flops    39 x    15 x     5             16614000       0.0%    100.0%      0.0%
 flops    25 x    15 x    32             16872000       0.0%    100.0%      0.0%
 flops    25 x    32 x    15             16872000       0.0%    100.0%      0.0%
 flops    15 x    15 x    32             18187200       0.0%    100.0%      0.0%
 flops    15 x    32 x    15             18187200       0.0%    100.0%      0.0%
 flops    32 x    15 x    15             18187200       0.0%    100.0%      0.0%
 flops    25 x    15 x    13             19383000       0.0%    100.0%      0.0%
 flops    36 x    32 x    10             19630080       0.0%    100.0%      0.0%
 flops    32 x    32 x    10             23101440       0.0%    100.0%      0.0%
 flops    36 x    32 x     5             24537600       0.0%    100.0%      0.0%
 flops     5 x    15 x     5             26136000       0.0%    100.0%      0.0%
 flops    13 x     5 x    15             27606150       0.0%    100.0%      0.0%
 flops     5 x    13 x    15             27606150       0.0%    100.0%      0.0%
 flops    39 x    32 x    10             28354560       0.0%    100.0%      0.0%
 flops    32 x    32 x     5             28876800       0.0%    100.0%      0.0%
 flops    36 x    15 x    15             34165800       0.0%    100.0%      0.0%
 flops    39 x    32 x     5             35443200       0.0%    100.0%      0.0%
 flops    25 x    32 x    32             35993600       0.0%    100.0%      0.0%
 flops    32 x    32 x    15             38799360       0.0%    100.0%      0.0%
 flops    15 x    32 x    32             38799360       0.0%    100.0%      0.0%
 flops    32 x    15 x    32             38799360       0.0%    100.0%      0.0%
 flops    25 x    32 x    13             41350400       0.0%    100.0%      0.0%
 flops    15 x    15 x    13             46191600       0.0%    100.0%      0.0%
 flops    39 x    15 x    15             49350600       0.0%    100.0%      0.0%
 flops     5 x    32 x     5             55756800       0.0%    100.0%      0.0%
 flops    13 x     5 x    32             58893120       0.0%    100.0%      0.0%
 flops     5 x    13 x    32             58893120       0.0%    100.0%      0.0%
 flops    36 x    15 x    32             72887040       0.0%    100.0%      0.0%
 flops    36 x    32 x    15             72887040       0.0%    100.0%      0.0%
 flops    32 x    32 x    32             82771968       0.0%    100.0%      0.0%
 flops    36 x    15 x    13             83734560       0.0%    100.0%      0.0%
 flops    32 x    15 x    13             98367360       0.0%    100.0%      0.0%
 flops    15 x    32 x    13             98542080       0.0%    100.0%      0.0%
 flops    39 x    32 x    15            105281280       0.0%    100.0%      0.0%
 flops    39 x    15 x    32            105281280       0.0%    100.0%      0.0%
 flops     5 x    15 x    13            111196800       0.0%    100.0%      0.0%
 flops    13 x    15 x     5            111196800       0.0%    100.0%      0.0%
 flops    39 x    15 x    13            120949920       0.0%    100.0%      0.0%
 flops    13 x    13 x    15            123976710       0.0%    100.0%      0.0%
 flops    36 x    32 x    32            155492352       0.0%    100.0%      0.0%
 flops    36 x    32 x    13            178633728       0.0%    100.0%      0.0%
 flops    32 x    32 x    13            210223104       0.0%    100.0%      0.0%
 flops    39 x    32 x    32            224600064       0.0%    100.0%      0.0%
 flops    13 x    32 x     5            237219840       0.0%    100.0%      0.0%
 flops     5 x    32 x    13            237219840       0.0%    100.0%      0.0%
 flops    39 x    32 x    13            258026496       0.0%    100.0%      0.0%
 flops    13 x    13 x    32            264483648       0.0%    100.0%      0.0%
 flops    13 x    15 x    13            473091840       0.0%    100.0%      0.0%
 flops    13 x    32 x    13           1009262592       0.0%    100.0%      0.0%
 flops inhomo. stacks                   495172392     100.0%      0.0%      0.0%
 flops total                         5.942817E+09       8.3%     91.7%      0.0%
 flops max/rank                    876.928036E+06      13.4%     86.6%      0.0%
 matmuls inhomo. stacks                     13581     100.0%      0.0%      0.0%
 matmuls total                             750248       1.8%     98.2%      0.0%
 number of processed stacks                374118       3.6%     96.4%      0.0%
 average stack size                                     1.0       2.0       0.0
 marketing flops                     6.382393E+09
 -------------------------------------------------------------------------------
 # multiplications                           3106
 max memory usage/rank              30.195712E+06
 # max total images/rank                        3
 # max 3D layers                                1
 # MPI messages exchanged                54864384
 MPI messages size (bytes):
  total size                        14.291929E+09
  min size                           0.000000E+00
  max size                           9.984000E+03
  average size                     260.495575E+00
 MPI breakdown and total messages size (bytes):
             size <=      128            50478330                        0
       128 < size <=     8192             4249526              12973750208
      8192 < size <=    32768              136528               1318158336
     32768 < size <=   131072                   0                        0
    131072 < size <=  4194304                   0                        0
   4194304 < size <= 16777216                   0                        0
  16777216 < size                               0                        0
 -------------------------------------------------------------------------------

 *** WARNING in dbcsr/mm/dbcsr_mm.F:268 :: Using a non-square number of ***
 *** MPI ranks might lead to poor performance.                          ***
 *** Used ranks: 192                                                    ***
 *** Suggested: 196 400                                                 ***

 -------------------------------------------------------------------------------

 MEMORY| Estimated peak process memory [MiB]                                  30

 -------------------------------------------------------------------------------
 ----                             MULTIGRID INFO                            ----
 -------------------------------------------------------------------------------
 count for grid        1:        6452149          cutoff [a.u.]          140.00
 count for grid        2:        2784765          cutoff [a.u.]           46.67
 count for grid        3:        1793201          cutoff [a.u.]           15.56
 count for grid        4:        1277304          cutoff [a.u.]            5.19
 total gridlevel count  :       12307419

 -------------------------------------------------------------------------------
 -                                                                             -
 -                         MESSAGE PASSING PERFORMANCE                         -
 -                                                                             -
 -------------------------------------------------------------------------------

 ROUTINE             CALLS      AVE VOLUME [Bytes]
 MP_Group              162
 MP_Bcast             9735                  75976.
 MP_Allreduce        41685                    112.
 MP_Sync               711
 MP_Alltoall         14257                 672000.
 MP_ISendRecv       108106                  10560.
 MP_Wait            778241
 MP_comm_split         141
 MP_ISend           631508                   4179.
 MP_IRecv           629787                   4149.
 MP_Recv               184                   4624.
 MP_Memory          235308
 -------------------------------------------------------------------------------


 -------------------------------------------------------------------------------
 -                                                                             -
 -                           R E F E R E N C E S                               -
 -                                                                             -
 -------------------------------------------------------------------------------
 
 CP2K version 6.1, the CP2K developers group (2018).
 CP2K is freely available from https://www.cp2k.org/ .

 Schuett, Ole; Messmer, Peter; Hutter, Juerg; VandeVondele, Joost. 
 Electronic Structure Calculations on Graphics Processing Units, John Wiley & Sons, Ltd, 173-190 (2016). 
 GPU-Accelerated Sparse Matrix-Matrix Multiplication for Linear Scaling Density Functional Theory.
 http://dx.doi.org/10.1002/9781118670712.ch8


 Borstnik, U; VandeVondele, J; Weber, V; Hutter, J. 
 PARALLEL COMPUTING, 40 (5-6), 47-58 (2014). 
 Sparse matrix multiplication: The distributed block-compressed sparse
 row library.
 http://dx.doi.org/10.1016/j.parco.2014.03.012


 Hutter, J; Iannuzzi, M; Schiffmann, F; VandeVondele, J. 
 WILEY INTERDISCIPLINARY REVIEWS-COMPUTATIONAL MOLECULAR SCIENCE, 4 (1), 15-25 (2014). 
 CP2K: atomistic simulations of condensed matter systems.
 http://dx.doi.org/10.1002/wcms.1159


 VandeVondele, J; Hutter, J. 
 JOURNAL OF CHEMICAL PHYSICS, 127 (11), 114105 (2007). 
 Gaussian basis sets for accurate calculations on molecular systems in
 gas and condensed phases.
 http://dx.doi.org/10.1063/1.2770708


 Genovese, L; Deutsch, T; Goedecker, S. 
 JOURNAL OF CHEMICAL PHYSICS, 127 (5), 054704 (2007). 
 Efficient and accurate three-dimensional Poisson solver for surface
 problems.
 http://dx.doi.org/10.1063/1.2754685


 Genovese, L; Deutsch, T; Neelov, A; Goedecker, S; Beylkin, G. 
 JOURNAL OF CHEMICAL PHYSICS, 125 (7), 074105 (2006). 
 Efficient solution of Poisson's equation with free boundary conditions.
 http://dx.doi.org/10.1063/1.2335442


 Krack, M. 
 THEORETICAL CHEMISTRY ACCOUNTS, 114 (1-3), 145-152 (2005). 
 Pseudopotentials for H to Kr optimized for gradient-corrected
 exchange-correlation functionals.
 http://dx.doi.org/10.1007/s00214-005-0655-y


 VandeVondele, J; Krack, M; Mohamed, F; Parrinello, M; Chassaing, T;
 Hutter, J. COMPUTER PHYSICS COMMUNICATIONS, 167 (2), 103-128 (2005). 
 QUICKSTEP: Fast and accurate density functional calculations using a
 mixed Gaussian and plane waves approach.
 http://dx.doi.org/10.1016/j.cpc.2004.12.014


 Frigo, M; Johnson, SG. 
 PROCEEDINGS OF THE IEEE, 93 (2), 216-231 (2005). 
 The design and implementation of FFTW3.
 http://dx.doi.org/10.1109/JPROC.2004.840301


 VandeVondele, J; Hutter, J. 
 JOURNAL OF CHEMICAL PHYSICS, 118 (10), 4365-4369 (2003). 
 An efficient orbital transformation method for electronic structure
 calculations.
 http://dx.doi.org/10.1063/1.1543154


 Hartwigsen, C; Goedecker, S; Hutter, J. 
 PHYSICAL REVIEW B, 58 (7), 3641-3662 (1998). 
 Relativistic separable dual-space Gaussian pseudopotentials from H to Rn.
 http://dx.doi.org/10.1103/PhysRevB.58.3641


 Lippert, G; Hutter, J; Parrinello, M. 
 MOLECULAR PHYSICS, 92 (3), 477-487 (1997). 
 A hybrid Gaussian and plane wave density functional scheme.
 http://dx.doi.org/10.1080/002689797170220


 Perdew, JP; Burke, K; Ernzerhof, M. 
 PHYSICAL REVIEW LETTERS, 77 (18), 3865-3868 (1996). 
 Generalized gradient approximation made simple.
 http://dx.doi.org/10.1103/PhysRevLett.77.3865


 Goedecker, S; Teter, M; Hutter, J. 
 PHYSICAL REVIEW B, 54 (3), 1703-1710 (1996). 
 Separable dual-space Gaussian pseudopotentials.
 http://dx.doi.org/10.1103/PhysRevB.54.1703


 -------------------------------------------------------------------------------
 -                                                                             -
 -                                T I M I N G                                  -
 -                                                                             -
 -------------------------------------------------------------------------------
 SUBROUTINE                       CALLS  ASD         SELF TIME        TOTAL TIME
                                MAXIMUM       AVERAGE  MAXIMUM  AVERAGE  MAXIMUM
 CP2K                                 1  1.0    0.003    0.017   65.246   65.248
 qs_energies                          1  2.0    0.000    0.000   64.928   64.929
 scf_env_do_scf                       1  3.0    0.000    0.000   64.655   64.655
 scf_env_do_scf_inner_loop          141  4.0    0.004    0.010   63.909   63.911
 qs_ks_update_qs_env                142  5.0    0.001    0.001   40.843   40.867
 rebuild_ks_matrix                  141  6.0    0.000    0.000   40.834   40.858
 qs_ks_build_kohn_sham_matrix       141  7.0    0.013    0.015   40.833   40.858
 pw_transfer                       2685  9.6    0.120    0.150   20.007   20.332
 fft_wrap_pw1pw2                   2685 10.6    0.016    0.018   19.888   20.218
 fft_wrap_pw1pw2_140               1836 11.7    0.725    0.954   18.706   19.047
 fft3d_ps                          2685 12.6    4.370    6.861   18.047   18.400
 rs_pw_transfer                    1135  9.5    0.012    0.016   14.216   14.739
 qs_rho_update_rho                  142  5.0    0.001    0.001   14.121   14.124
 calculate_rho_elec                 142  6.0    0.517    6.692   14.121   14.124
 qs_vxc_create                      141  8.0    0.002    0.003   13.832   13.907
 xc_vxc_pw_create                   141  9.0    0.113    0.159   13.830   13.905
 sum_up_and_integrate               141  8.0    0.026    0.036   13.695   13.696
 integrate_v_rspace                 141  9.0    0.498    6.618   13.668   13.675
 density_rs2pw                      142  7.0    0.006    0.008   12.612   13.179
 mp_alltoall_z22v                  2685 14.6   11.546   12.304   11.546   12.304
 pw_poisson_solve                   141  8.0    0.180    0.215   11.636   11.637
 qs_scf_new_mos                     141  5.0    0.001    0.001    8.581    8.588
 qs_scf_loop_do_ot                  141  6.0    0.001    0.001    8.580    8.587
 mp_waitany                       22238 11.5    7.409    8.552    7.409    8.552
 ot_scf_mini                        141  7.0    0.004    0.004    8.235    8.240
 mp_alltoall_d11v                  2384 12.2    7.439    8.011    7.439    8.011
 yz_to_x                            848 13.7    0.340    0.383    7.231    7.751
 xc_rho_set_and_dset_create         141 10.0    0.066    0.071    6.152    7.555
 dbcsr_multiply_generic            3106 10.1    0.119    0.127    7.282    7.346
 rs_pw_transfer_RS2PW_140           144  9.0    1.212    1.533    6.118    7.232
 ps_wavelet_solve                   141  9.0    2.262    3.974    7.003    7.132
 potential_pw2rs                    141 10.0    0.007    0.008    6.994    7.060
 rs_distribute_matrix               283  8.5    0.007    0.040    6.239    6.663
 x_to_yz                            988 13.7    0.862    1.134    5.426    5.652
 ot_mini                            141  8.0    0.001    0.001    4.906    4.915
 mp_alltoall_d54                    141 10.0    3.027    4.645    3.027    4.645
 qs_ot_get_derivative               141  9.0    0.001    0.001    4.454    4.459
 multiply_cannon                   3106 11.1    0.746    0.765    4.173    4.410
 rs_pw_transfer_RS2PW_50            142  9.0    0.403    0.483    2.000    4.099
 qs_ot_get_derivative_diag          140 10.0    0.003    0.003    3.439    3.445
 xc_functional_eval                 141 11.0    0.001    0.002    1.737    3.298
 pbe_lda_eval                       141 12.0    1.736    3.297    1.736    3.297
 mp_waitall_1                    757562 13.0    2.532    3.209    2.532    3.209
 rs_pw_transfer_PW2RS_140           142 12.0    1.416    1.526    2.455    2.636
 qs_ot_get_p                        142  8.0    0.001    0.001    2.376    2.381
 make_m2s                          6212 11.1    0.106    0.124    1.898    1.955
 mp_alltoall_d45                    142 10.0    1.741    1.934    1.741    1.934
 rs_pw_transfer_PW2RS_50            141 12.0    0.394    0.460    1.147    1.625
 make_images                       6212 12.1    0.183    0.191    1.450    1.493
 multiply_cannon_metrocomm2      214314 12.1    0.747    0.769    1.324    1.383
 qs_ot_p2m_diag                     141  9.0    0.003    0.019    1.305    1.330
 -------------------------------------------------------------------------------

 The number of warnings for this run is : 2
 
 -------------------------------------------------------------------------------
  **** **** ******  **  PROGRAM ENDED AT                 2019-06-19 00:11:20.303
 ***** ** ***  *** **   PROGRAM RAN ON                                  nid00616
 **    ****   ******    PROGRAM RAN BY                                    vamodi
 ***** **    ** ** **   PROGRAM PROCESS ID                                 34055
  **** **  *******  **  PROGRAM STOPPED IN /wrk/vamodi/BioExcel-2/Summer_school-
                                           2019/single_pnt
Application 8681732 resources: utime ~12398s, stime ~346s, Rss ~32244, inblocks ~924182, outblocks ~1954774
