#     Step Nr.          Time[fs]        Kin.[a.u.]          Temp[K]            Pot.[a.u.]        Cons Qty[a.u.]        UsedTime[s]
         0            0.000000        66.453767392       298.000000000      -393.645896313      -327.191657066         0.000000000
         1            1.000000        59.397643907       266.358079894      -384.006743706      -324.605432101        28.522411685
         2            2.000000        59.703655929       267.730335919      -384.881226046      -325.171987278        10.826570895
         3            3.000000        65.123884742       292.036379797      -391.457287002      -326.326967366        10.290168140
         4            4.000000        65.227540698       292.501206339      -389.994619636      -324.760136843        11.032040123
         5            5.000000        68.940684033       309.152131597      -395.846126586      -326.898133838         9.452505913
         6            6.000000        60.476340291       271.195300342      -385.693983120      -325.209787712         9.704029687
         7            7.000000        56.008761361       251.161243985      -380.302965459      -324.286808540         9.606502738
         8            8.000000        63.934712143       286.703748580      -390.816835265      -326.876840726         9.528740171
         9            9.000000        62.380217659       279.732896900      -387.309868861      -324.927277629         9.285729684
        10           10.000000        64.671608362       290.008227497      -390.292991931      -325.622629305         9.267203771
        11           11.000000        66.527625386       298.331202927      -392.645716897      -326.123437808         9.630849507
        12           12.000000        65.160141275       292.198965719      -389.482496065      -324.331883703         9.490785576
        13           13.000000        72.420684745       324.757570577      -399.441111994      -327.034366960        10.096895359
        14           14.000000        66.202821003       296.874675933      -391.744560223      -325.559245063         9.417731576
        15           15.000000        59.398243668       266.360769417      -383.663470509      -324.286011326         9.764654294
        16           16.000000        64.368600764       288.649444274      -390.823637597      -326.480111754         9.572892342
        17           17.000000        64.049071188       287.216571207      -388.756855010      -324.737834135        10.960074611
        18           18.000000        68.612201400       307.679110150      -394.773573825      -326.196923098         9.105131309
        19           19.000000        66.557735764       298.466227514      -392.664306626      -326.147456936         9.130201060
        20           20.000000        60.428916623       270.982637411      -384.377668950      -323.994721024         9.227878153
        21           21.000000        67.525379172       302.805450814      -394.237176695      -326.763742506         9.807099778
        22           22.000000        64.725595185       290.250321723      -390.350342565      -325.682893593         8.942671519
        23           23.000000        59.218234903       265.553552396      -383.999580923      -324.845677703         8.821982335
        24           24.000000        59.908212146       268.647631580      -386.111786504      -326.275015172         8.988798477
        25           25.000000        58.235874034       261.148331288      -382.411242350      -324.255060726         9.197574221
        26           26.000000        68.100278996       305.383485954      -394.213911770      -326.203437160         9.289610583
        27           27.000000        71.052963831       318.624271471      -397.622979642      -326.670749723         9.084751431
        28           28.000000        63.241418772       283.594798818      -387.298425091      -324.167603434         8.938469328
        29           29.000000        66.296781302       297.296024037      -392.511585239      -326.335237238         9.447932251
        30           30.000000        64.898603707       291.026147407      -390.106694090      -325.338577640         9.378536269
        31           31.000000        64.713912423       290.197932472      -389.780548411      -325.207275355         9.617906161
        32           32.000000        65.799203120       295.064723933      -392.271575657      -326.623481170        10.216019168
        33           33.000000        59.474757265       266.703880919      -383.275521770      -323.962140461         9.487255763
        34           34.000000        67.097394714       300.886231280      -392.931908544      -326.007190401        10.408992149
        35           35.000000        71.160339232       319.105777197      -397.581490468      -326.606006577         9.035133313
        36           36.000000        64.703494679       290.151215969      -389.103090067      -324.595620165         9.216683868
        37           37.000000        64.311617299       288.393912146      -390.470010406      -326.365096941         9.097546134
        38           38.000000        59.293786056       265.892347992      -383.878770886      -324.802296456         9.083930641
        39           39.000000        61.800255875       277.132162306      -386.767160081      -325.195614519         8.949329920
        40           40.000000        66.793164254       299.521964352      -393.552665609      -327.000979518         9.188192774
        41           41.000000        60.112574346       269.564057210      -384.082032854      -324.223551627        10.352416229
        42           42.000000        64.723821728       290.242368971      -390.119103558      -325.662507854         8.988766640
        43           43.000000        69.788169789       312.952529454      -395.759977664      -326.253255852         9.010045581
        44           44.000000        68.276254316       306.172615708      -392.861271622      -324.880268583        10.002554815
        45           45.000000        69.058600121       309.680905142      -395.565747562      -326.815409999         9.038193870
        46           46.000000        59.999250784       269.055878024      -384.210954357      -324.531661904         9.092533745
        47           47.000000        61.090765710       273.950580922      -385.576540810      -324.817393443         9.139566686
        48           48.000000        69.197683250       310.304598488      -395.823956201      -326.970997287         9.084054135
        49           49.000000        65.124494627       292.039114720      -389.387928123      -324.621085817         9.174146440
        50           50.000000        66.577384639       298.554339370      -392.168499712      -325.961226587         9.030563463
        51           51.000000        65.718996956       294.705053776      -391.028050463      -325.691366468         9.618920155
        52           52.000000        64.695706003       290.116289048      -389.015681873      -324.714116791         9.434185136
        53           53.000000        68.947384358       309.182178001      -395.628187656      -327.086917449         9.201123122
        54           54.000000        59.848638125       268.380482571      -384.248549772      -324.817057354         8.959328473
        55           55.000000        57.528847020       257.977795463      -381.774204101      -324.673239173         9.326693729
        56           56.000000        64.909951600       291.077034997      -391.003303043      -326.533480221         9.092045039
        57           57.000000        65.830394382       295.204595553      -390.171502986      -324.794321007         9.007596489
        58           58.000000        70.589462870       316.545784549      -396.549003026      -326.425954746         8.979496900
        59           59.000000        66.914627067       300.066642549      -392.119580230      -325.683591359         9.101169296
        60           60.000000        62.875125985       281.952224514      -386.597003875      -324.211556334         9.405736551
        61           61.000000        69.733714917       312.708336350      -396.241071558      -327.008330410        10.314746007
        62           62.000000        64.620629724       289.779622941      -389.223752473      -325.114773234        10.067467991
        63           63.000000        61.776309882       277.024780798      -386.248180516      -324.993476506         8.966238923
        64           64.000000        64.503234542       289.253185301      -390.111410961      -326.140100229         9.154029012
        65           65.000000        64.632602437       289.833312425      -388.508281622      -324.418187934         8.987315089
        66           66.000000        72.565169492       325.405486513      -398.809223081      -326.797537959         9.478299730
        67           67.000000        68.453658488       306.968152899      -393.793701109      -325.903441525        10.672829781
        68           68.000000        60.659960696       272.018713112      -384.321232763      -324.233106740         9.686120149
        69           69.000000        64.574428686       289.572442674      -390.508471952      -326.514558739         9.386637826
        70           70.000000        62.412914285       279.879519054      -386.842121784      -325.018687873         8.915752325
        71           71.000000        63.879538381       286.456331740      -388.794296150      -325.513495591         9.244017016
        72           72.000000        65.388105216       293.221229121      -391.077882141      -326.298131695         9.496262681
        73           73.000000        62.687190461       281.109461367      -386.178056616      -324.108703643         8.974936724
        74           74.000000        71.945609166       322.627179362      -397.872788414      -326.555067010         8.897814702
        75           75.000000        71.717552745       321.604501248      -397.255974032      -326.175744289         9.224750541
        76           76.000000        64.137376184       287.612559121      -388.006023396      -324.513716718         9.845868569
        77           77.000000        64.484640477       289.169803555      -390.133148041      -326.300906015         9.520086952
        78           78.000000        61.594057812       276.207504080      -385.513179026      -324.578903250         8.920518402
        79           79.000000        66.943350000       300.195445388      -392.038568179      -325.763011972         9.038966615
        80           80.000000        69.265328770       310.607942689      -395.170130953      -326.580783699         9.017998148
        81           81.000000        62.727596976       281.290657136      -386.122938678      -324.078679826        10.067540310
        82           82.000000        68.250901387       306.058925049      -393.815087430      -326.255028831         9.778298505
        83           83.000000        68.893128339       308.938876615      -394.117837476      -325.922931523         9.244785551
        84           84.000000        65.050730703       291.708333633      -389.341502343      -324.995622068         9.273174159
        85           85.000000        64.186048510       287.830821435      -389.935649878      -326.460862707         9.159952573
        86           86.000000        57.836351289       259.356743200      -381.364113433      -324.245436636         8.947667275
        87           87.000000        64.228327765       288.020415171      -388.985439819      -325.482325251         8.903665520
        88           88.000000        71.531042625       320.768130067      -397.652580882      -326.855322890        10.092187703
        89           89.000000        67.030469837       300.586118670      -390.828735453      -324.539848055         8.942641329
        90           90.000000        69.001656081       309.425549809      -394.392624787      -326.139730375         8.971327376
        91           91.000000        67.077238444       300.795844101      -391.726368377      -325.404488087         9.646345422
        92           92.000000        66.446188304       297.966012939      -390.639484046      -324.954819979         9.893967599
        93           93.000000        68.937538785       309.138027294      -395.077199192      -326.907217494         9.260863256
        94           94.000000        60.697552754       272.187287953      -384.200076543      -324.275512003         9.347229034
        95           95.000000        63.742410265       285.841405301      -388.248787373      -325.285283821         9.286206979
        96           96.000000        70.335486350       315.406872402      -396.040378594      -326.490491740         9.470317226
        97           97.000000        68.375779690       306.618919398      -392.403453553      -324.819486372         9.644813031
        98           98.000000        69.484726945       311.591794451      -395.190105566      -326.502772739         9.942939032
        99           99.000000        63.061463364       282.787821066      -387.342446194      -325.083236053         8.956174653
       100          100.000000        61.832464416       277.276595731      -385.744701948      -324.719499856         8.899924334
       101          101.000000        67.794653560       304.012963503      -393.884184918      -326.902629543        10.298241653
       102          102.000000        62.570042983       280.584134517      -386.472177416      -324.721014101         8.933184102
       103          103.000000        63.700374967       285.652905547      -388.233984535      -325.358587679         9.342589281
       104          104.000000        67.893223959       304.454984778      -393.171945346      -326.110423460         9.859799083
       105          105.000000        68.617204852       307.701547231      -392.511704405      -324.732868083         8.849219002
       106          106.000000        73.538329062       329.769446048      -399.554900796      -326.861203395         8.962690484
       107          107.000000        66.097813188       296.403787222      -390.472410013      -325.224159773         9.004170280
       108          108.000000        61.451411820       275.567833715      -385.000995933      -324.403581232         9.264645755
       109          109.000000        67.477330897       302.589986940      -393.247732638      -326.629539321         9.575189169
       110          110.000000        65.837851458       295.238035473      -389.824948667      -324.851468409         9.193212595
       111          111.000000        68.037436850       305.101681621      -393.011806429      -325.843960933        12.882088069
       112          112.000000        67.417826517       302.323150223      -392.421104080      -325.877842261         9.973999664
       113          113.000000        64.973588648       291.362403924      -388.475732918      -324.381371052         9.324435201
       114          114.000000        71.398818663       320.175195427      -397.363451984      -326.848682925        10.123904262
       115          115.000000        66.362648881       297.591395380      -390.958470560      -325.483979451         9.597921066
       116          116.000000        61.038127584       273.714534690      -384.812946747      -324.666755013        10.401248366
       117          117.000000        64.123420342       287.549976651      -389.472969637      -326.245990411         9.890031978
       118          118.000000        63.841631109       286.286343382      -387.606340503      -324.666238699         9.209363952
       119          119.000000        70.057238882       314.159121540      -395.318167174      -326.168095431         9.506599069
       120          120.000000        69.869039778       313.315176416      -395.148206088      -326.191590017         9.291698411
       121          121.000000        64.479721210       289.147743981      -387.750309575      -324.187463784        10.225968868
       122          122.000000        70.208890554       314.839176259      -395.796478260      -326.509005561         9.003705636
       123          123.000000        68.312528157       306.335279241      -392.879892824      -325.492841914         9.005162746
       124          124.000000        65.172499715       292.254384924      -389.307490074      -325.064009506         9.127235945
       125          125.000000        65.447650866       293.488250906      -390.744685539      -326.229663428         9.317216836
       126          126.000000        62.487711636       280.214934359      -385.812358241      -324.261056023         9.811773933
       127          127.000000        70.367603795       315.550897320      -395.624497022      -326.197726949         9.291081183
       128          128.000000        71.771562861       321.846699924      -397.170905740      -326.344217219         9.302162867
       129          129.000000        64.812906245       290.641852507      -388.332650925      -324.467611612         9.197509337
       130          130.000000        66.193952017       296.834904555      -391.476038837      -326.232922166         8.888018072
       131          131.000000        63.941624531       286.734745947      -388.126380307      -325.138662599         9.255548462
       132          132.000000        65.253197238       292.616258493      -389.639371128      -325.343517921         8.929658264
       133          133.000000        67.302966494       301.808081052      -392.888759948      -326.546867302         8.927877545
       134          134.000000        61.801716617       277.138712744      -385.092966718      -324.255955093         8.907940801
       135          135.000000        67.613723629       303.201615683      -392.479498208      -325.834740498        10.112751424
       136          136.000000        71.568824569       320.937556420      -396.920705129      -326.325207135        10.686746780
       137          137.000000        67.905298264       304.509129835      -391.732284342      -324.803802496         9.839716397
       138          138.000000        68.199524792       305.828535921      -393.574999667      -326.355281496         9.078885097
       139          139.000000        62.946420427       282.271931650      -386.700488219      -324.736536694         9.183719110
       140          140.000000        65.141730548       292.116406113      -389.362303612      -325.206132746         9.048188981
       141          141.000000        69.726056485       312.673993485      -395.492385386      -326.755333828        10.452996776
       142          142.000000        64.080261240       287.356437399      -387.539612076      -324.451365469         9.139687024
       143          143.000000        66.767441822       299.406616718      -391.559303357      -325.787072700         8.904282205
       144          144.000000        68.525922274       307.292206883      -393.389068981      -325.861611789         9.581320483
       145          145.000000        67.278974284       301.700492287      -391.240948902      -324.963352640         9.414561108
       146          146.000000        68.774539422       308.407085892      -394.440403601      -326.669912832         9.402875435
       147          147.000000        61.334861260       275.045183632      -385.060814720      -324.732311857         9.418242581
       148          148.000000        61.965043533       277.871123003      -385.924175166      -324.968440845         8.996602815
       149          149.000000        68.624086248       307.732405619      -394.207690879      -326.596767463         9.068847764
       150          150.000000        66.597975617       298.646675921      -390.413774220      -324.832721350         8.963935006
       151          151.000000        68.571846965       307.498147922      -393.570926542      -326.019620978         9.404265873
       152          152.000000        67.030411371       300.585856492      -391.593434809      -325.586847914         9.281463366
       153          153.000000        66.190472455       296.819301081      -389.847548550      -324.683986694         8.970436003
       154          154.000000        71.388130665       320.127267019      -397.195997243      -326.837852703         9.452016588
       155          155.000000        65.209111226       292.418562678      -389.133920672      -324.957132018         9.004066389
       156          156.000000        63.246721591       283.618578359      -387.197653409      -324.985581518         9.528693225
       157          157.000000        67.177860657       301.247066366      -392.360723265      -326.220360051         9.366891857
       158          158.000000        66.826107678       299.669693224      -390.568097251      -324.782369569         9.500860862
       159          159.000000        70.940769590       318.121156518      -396.279232009      -326.381605899        10.819857623
       160          160.000000        67.213083047       301.405014856      -391.741249933      -325.573357601        11.404969644
       161          161.000000        63.431981703       284.449344099      -386.913428514      -324.528418799        12.355883241
       162          162.000000        68.449828681       306.950978818      -394.000096218      -326.599420051         9.752151188
       163          163.000000        65.369062045       293.135833438      -389.481357846      -325.163460848         9.687807273
       164          164.000000        64.646295906       289.894718330      -388.899804014      -325.306780913         9.007004403
       165          165.000000        66.297293472       297.298320774      -391.301779223      -326.060178869         9.217032056
       166          166.000000        65.323798427       292.932856860      -388.796095127      -324.530516675         9.401066121
       167          167.000000        71.973754631       322.753392650      -397.390311162      -326.477442630         9.498411521
       168          168.000000        69.850575242       313.232375515      -394.639068967      -325.851198329         9.359677136
       169          169.000000        64.456784228       289.044887201      -387.914759809      -324.521796135         9.058925182
       170          170.000000        67.611266782       303.190598392      -392.849484431      -326.303319009         9.110615350
       171          171.000000        65.871454184       295.388720869      -389.783896304      -324.978728024        10.196797449
       172          172.000000        67.659175346       303.405435754      -392.257964246      -325.666287838         9.879446689
       173          173.000000        67.658815669       303.403822847      -392.727992281      -326.137705240         9.362008110
       174          174.000000        63.670096503       285.517127207      -386.935834318      -324.335125160         8.999500912
       175          175.000000        69.789457069       312.958302032      -395.012793647      -326.293902757         9.014818970
       176          176.000000        69.550061625       311.884776104      -394.332642495      -325.853846380         8.993844494
       177          177.000000        65.214308400       292.441868476      -389.057567443      -324.914678242         9.625404458
       178          178.000000        65.522068798       293.821964775      -390.659247035      -326.208874938         9.142665401
       179          179.000000        62.429561890       279.954172253      -386.063588477      -324.706253334         9.414423816
       180          180.000000        66.982867101       300.372652739      -391.598980138      -325.689479942         9.545572393
       181          181.000000        69.762679121       312.838221126      -395.102065987      -326.413891015        10.240207322
       182          182.000000        64.910643566       291.080137992      -388.315572855      -324.480080464         9.027684592
       183          183.000000        68.435840600       306.888251775      -393.410449258      -326.050498708         9.278974373
       184          184.000000        68.779653250       308.430017934      -393.349365267      -325.646035819         9.027002860
       185          185.000000        67.676320686       303.482320957      -391.722464657      -325.122459877         9.581434850
       186          186.000000        68.438885128       306.901904417      -393.773591676      -326.410715024         9.035527635
       187          187.000000        62.718082871       281.247992838      -386.141288647      -324.498684251        10.338887583
       188          188.000000        66.163647896       296.699011159      -390.617553447      -325.529369640         9.553599492
       189          189.000000        70.152201383       314.584963842      -395.436933566      -326.360221409         9.656582426
       190          190.000000        66.787672898       299.497339350      -390.487616962      -324.774890623         9.124089677
       191          191.000000        68.393140592       306.696771247      -393.428551998      -326.109623915         9.695118442
       192          192.000000        66.081283826       296.329664263      -390.309720466      -325.301625771         9.782770582
       193          193.000000        66.043619229       296.160764134      -390.081891669      -325.110471542         9.782209378
       194          194.000000        68.816592215       308.595664098      -394.348573241      -326.603179140         9.051286992
       195          195.000000        63.091118402       282.920803767      -386.728912559      -324.707753371        10.048840318
       196          196.000000        64.708928634       290.175583562      -389.030618086      -325.390919623         9.839424577
       197          197.000000        68.757295617       308.329759142      -393.814733150      -326.126192845         9.023534097
       198          198.000000        68.095552256       305.362289734      -391.943257507      -324.915620479         9.377445377
       199          199.000000        70.636670374       316.757478130      -395.952739248      -326.382701204         9.819238625
       200          200.000000        66.221757107       296.959591493      -390.347553506      -325.190484257         9.130087424
       201          201.000000        65.311121431       292.876009148      -389.137061006      -324.888711336        10.629994493
       202          202.000000        69.833912446       313.157654196      -395.324084290      -326.551064406         9.151524153
       203          203.000000        65.864502091       295.357545455      -389.688421280      -324.882452023        10.271765366
       204          204.000000        66.161064780       296.687427638      -390.688227426      -325.583405003         9.320105944
       205          205.000000        66.897855983       299.991435629      -391.661187087      -325.817308919         9.987763241
       206          206.000000        66.339096341       297.485778240      -390.108306126      -324.820859853         9.269069195
       207          207.000000        70.649149927       316.813440449      -396.123794355      -326.523792162         8.992198560
       208          208.000000        66.103392565       296.428806936      -390.383385417      -325.326009219         9.765611745
       209          209.000000        63.083020897       282.884491956      -386.916662565      -324.876721081         9.700080365
       210          210.000000        66.394069221       297.732294260      -391.631224446      -326.277793745         9.299609050
       211          211.000000        64.872398160       290.908633330      -388.795195411      -324.961086052        10.121505819
       212          212.000000        67.345230784       301.997607680      -392.158089593      -325.848993535         9.284392230
       213          213.000000        67.022906534       300.552202395      -391.815565926      -325.826491826         9.741171055
       214          214.000000        64.975938763       291.372942594      -388.540989916      -324.596547748         9.774947595
       215          215.000000        70.310338788       315.294102670      -395.739321535      -326.458192789         9.844392452
       216          216.000000        67.835007662       304.193924235      -392.267341240      -325.458610975         9.544077262
       217          217.000000        65.028127883       291.606975341      -389.046043336      -325.041097655        10.231834788
       218          218.000000        66.381996234       297.678155117      -391.441667013      -326.079966735         9.782924976
       219          219.000000        64.582765009       289.609825415      -388.307331268      -324.742072507         9.388141189
       220          220.000000        68.714396739       308.137386818      -393.725793858      -326.026287064         9.779388908
       221          221.000000        68.227319459       305.953176119      -393.141264699      -325.925797215        10.115170680
       222          222.000000        64.450710607       289.017651138      -388.079278813      -324.637200009        10.230656132
       223          223.000000        68.170605813       305.698853947      -393.389311054      -326.224327091        10.399110533
       224          224.000000        66.815413988       299.621739291      -391.199903925      -325.386824483        10.376277518
       225          225.000000        65.840472687       295.249789903      -390.176143374      -325.334688178        10.085721761
       226          226.000000        66.101590954       296.420727935      -391.249225179      -326.143439593         9.524985310
       227          227.000000        62.852969239       281.852866561      -386.453150551      -324.592994547         9.317585040