 DBCSR| Multiplication driver                                               XSMM
 DBCSR| Multrec recursion limit                                              512
 DBCSR| Multiplication stack size                                           1000
 DBCSR| Maximum elements for images                                    UNLIMITED
 DBCSR| Multiplicative factor virtual images                                   1
 DBCSR| Multiplication size stacks                                             3
 DBCSR| Number of 3D layers                                               SINGLE
 DBCSR| Use MPI memory allocation                                              T
 DBCSR| Use RMA algorithm                                                      F
 DBCSR| Use Communication thread                                               T
 DBCSR| Communication thread load                                             87


  **** **** ******  **  PROGRAM STARTED AT               2019-06-19 00:03:53.436
 ***** ** ***  *** **   PROGRAM STARTED ON                              nid00059
 **    ****   ******    PROGRAM STARTED BY                                vamodi
 ***** **    ** ** **   PROGRAM PROCESS ID                                 35334
  **** **  *******  **  PROGRAM STARTED IN /wrk/vamodi/BioExcel-2/Summer_school-
                                           2019/geo-opt/QMMM

 CP2K| version string:                                          CP2K version 6.1
 CP2K| source code revision number:                                    svn:18464
 CP2K| cp2kflags: libint fftw3 libxc elpa=201605 elpa_qr parallel mpi3 scalapack
 CP2K|             xsmm has_no_shared_glibc plumed2
 CP2K| is freely available from                            https://www.cp2k.org/
 CP2K| Program compiled at                         Fri Jun 15 12:47:08 EEST 2018
 CP2K| Program compiled on                                              nid00390
 CP2K| Program compiled for                                           sisu_elpaU
 CP2K| Data directory path                     /appl/chem/cp2k/6.1/cp2k-6.1/data
 CP2K| Input file name                                                 input.inp

 GLOBAL| Force Environment number                                              1
 GLOBAL| Basis set file name                                        BASIS_MOLOPT
 GLOBAL| Potential file name                                           POTENTIAL
 GLOBAL| MM Potential file name                                     MM_POTENTIAL
 GLOBAL| Coordinate file name                            gfp-s65t_h148d-init.pdb
 GLOBAL| Method name                                                        CP2K
 GLOBAL| Project name                                               GEO_OPT-INIT
 GLOBAL| Preferred FFT library                                             FFTW3
 GLOBAL| Preferred diagonalization lib.                                       SL
 GLOBAL| Run type                                                        GEO_OPT
 GLOBAL| All-to-all communication in single precision                          F
 GLOBAL| FFTs using library dependent lengths                                  F
 GLOBAL| Global print level                                                  LOW
 GLOBAL| Total number of message passing processes                           192
 GLOBAL| Number of threads for this process                                    1
 GLOBAL| This output is from process                                           0
 GLOBAL| CPU model name :  Intel(R) Xeon(R) CPU E5-2690 v3 @ 2.60GHz

 MEMORY| system memory details [Kb]
 MEMORY|                        rank 0           min           max       average
 MEMORY| MemTotal             65975120      65975120      65975120      65975120
 MEMORY| MemFree              61344468      61311216      61360744      61344576
 MEMORY| Buffers                     0             0             0             0
 MEMORY| Cached                 194692        192976        194692        193864
 MEMORY| Slab                   250272        245492        250588        248253
 MEMORY| SReclaimable             7284          6624          7572          7173
 MEMORY| MemLikelyFree        61546444      61513264      61562120      61545613



                      ************* ******** ***********   
                     ************* **********************  
                     ****     **** ****      ***********   
                     ******** ****  *******     ****       
                     *******  ****   *******   ****        
                     ****     ****       ****  ****        
                     ****     **** **********  ****        
                      ****     **** ********    ****       
                     FRONTIERS IN SIMULATION TECHNOLOGY    
                                                           
                        C.J. Mundy, S. Balasubramanian,    
                     Ken Bagchi, J. Hutter, Ari Seitsonen  
                      IFW Kuo, T. Laino, J. VandeVondele   
                                 Version 1.0               

                                                           


 EWALD| Summation is done by:                                               SPME
 EWALD| Alpha parameter [       ANGSTROM^-1]                              0.4000
 EWALD| Real Space Cutoff [          ANGSTROM]                            8.4348
 EWALD| G-space max. Miller index                         40        40        40
 EWALD| Spline interpolation order                                             6

 FORCEFIELD| WARNING: A non Critical ForceField parameter is missing! CP2K GOES!
 FORCEFIELD| Non critical parameters are:Urey-Bradley,Torsions,Impropers, Opbends and 1-4
 FORCEFIELD| All missing parameters will not contribute to the potential energy!
 FORCEFIELD| Activate the print key FF_INFO to have a list of missing parameters

 CHARGE_INFO| Total Charge of the Classical System:                     1.088045

 SPLINE_INFO| Generating 40186 splines for NONBONDED14 interactions 
              Due to 283 different atomic kinds
  ...4018  ...8036  ...12054  ...16072  ...20090  ...24108  ...28126  ...32144  ...36162  ...40180
 SPLINE_INFO| Number of unique splines computed:            154
 SPLINE_INFO| Done

 SPLINE_INFO| Generating 40186 splines for NONBONDED interactions 
              Due to 283 different atomic kinds
  ...4018  ...8036  ...12054  ...16072  ...20090  ...24108  ...28126  ...32144  ...36162  ...40180
 SPLINE_INFO| Number of unique splines computed:            154
 SPLINE_INFO| Done

 *******************************************************************************
 *******************************************************************************
 **                                                                           **
 **     #####                         ##              ##                      **
 **    ##   ##            ##          ##              ##                      **
 **   ##     ##                       ##            ######                    **
 **   ##     ##  ##   ##  ##   #####  ##  ##   ####   ##    #####    #####    **
 **   ##     ##  ##   ##  ##  ##      ## ##   ##      ##   ##   ##  ##   ##   **
 **   ##  ## ##  ##   ##  ##  ##      ####     ###    ##   ######   ######    **
 **    ##  ###   ##   ##  ##  ##      ## ##      ##   ##   ##       ##        **
 **     #######   #####   ##   #####  ##  ##  ####    ##    #####   ##        **
 **           ##                                                    ##        **
 **                                                                           **
 **                                                ... make the atoms dance   **
 **                                                                           **
 **            Copyright (C) by CP2K developers group (2000 - 2018)           **
 **                                                                           **
 *******************************************************************************


 TOTAL NUMBERS AND MAXIMUM NUMBERS

  Total number of            - Atomic kinds:                                   5
                             - Atoms:                                         29
                             - Shell sets:                                    29
                             - Shells:                                       123
                             - Primitive Cartesian functions:                203
                             - Cartesian basis functions:                    307
                             - Spherical basis functions:                    289

  Maximum angular momentum of- Orbital basis functions:                        2
                             - Local part of the GTH pseudopotential:          2
                             - Non-local part of the GTH pseudopotential:      0


 SCF PARAMETERS         Density guess:                                    ATOMIC
                        --------------------------------------------------------
                        max_scf:                                             300
                        max_scf_history:                                       0
                        max_diis:                                              4
                        --------------------------------------------------------
                        eps_scf:                                        1.00E-06
                        eps_scf_history:                                0.00E+00
                        eps_diis:                                       1.00E-01
                        eps_eigval:                                     1.00E-05
                        --------------------------------------------------------
                        level_shift [a.u.]:                                 0.00
                        --------------------------------------------------------
                        No outer SCF

 *******************************************************************************
 *******************************************************************************
 **                                                                           **
 **             #######  ##     ## ##     ## ##     ##                        **
 **            ##     ## ###   ### ###   ### ###   ###                        **
 **            ##     ## #### #### #### #### #### ####                        **
 **            ##     ## ## ### ## ## ### ## ## ### ##                        **
 **            ##  ## ## ##     ## ##     ## ##     ##                        **
 **            ##    ##  ##     ## ##     ## ##     ##  T.Laino and F.Mohamed **
 **             ##### ## ##     ## ##     ## ##     ##  2005 - 2015           **
 **                                                                           **
 **                                                     Calculation Started.. **
 *******************************************************************************
 *******************************************************************************

  Translating the system in order to center the QM fragment in the QM box.

 *******************************************************************************
 ***                     STARTING GEOMETRY OPTIMIZATION                      ***
 ***                                 L-BFGS                                  ***
 *******************************************************************************

 --------------------------
 OPTIMIZATION STEP:      1
 --------------------------

  Translating the system in order to center the QM fragment in the QM box.

 Number of electrons:                                                         94
 Number of occupied orbitals:                                                 47
 Number of molecular orbitals:                                                47

 Number of orbital functions:                                                289
 Number of independent orbital functions:                                    289

 Extrapolation method: initial_guess


 SCF WAVEFUNCTION OPTIMIZATION

  ----------------------------------- OT ---------------------------------------
  Minimizer      : DIIS                : direct inversion
                                         in the iterative subspace
                                         using   7 DIIS vectors
                                         safer DIIS on
  Preconditioner : FULL_SINGLE_INVERSE : inversion of 
                                         H + eS - 2*(Sc)(c^T*H*c+const)(Sc)^T
  Precond_solver : DEFAULT
  stepsize       :    0.15000000                  energy_gap     :    0.08000000
  eps_taylor     :   0.10000E-15                  max_taylor     :             4
  ----------------------------------- OT ---------------------------------------

  Step     Update method      Time    Convergence         Total energy    Change
  ------------------------------------------------------------------------------
  Decoupling Energy:                                               0.0199571734
  Recoupling Energy:                                              -0.0093617913
     1 OT DIIS     0.15E+00    0.4     0.06982995      -161.2254670253 -1.61E+02
  Decoupling Energy:                                               0.0302655443
  Recoupling Energy:                                              -0.0095357291
     2 OT DIIS     0.15E+00    0.4     0.05410473      -166.3989983656 -5.17E+00
  Decoupling Energy:                                               0.0252846055
  Recoupling Energy:                                              -0.0094511485
     3 OT DIIS     0.15E+00    0.4     0.04174538      -168.2939402642 -1.89E+00
  Decoupling Energy:                                               0.0283189955
  Recoupling Energy:                                              -0.0095024215
     4 OT DIIS     0.15E+00    0.4     0.02546794      -169.4266676059 -1.13E+00
  Decoupling Energy:                                               0.0311274008
  Recoupling Energy:                                              -0.0095475739
     5 OT DIIS     0.15E+00    0.4     0.02005194      -170.0697350509 -6.43E-01
  Decoupling Energy:                                               0.0287696287
  Recoupling Energy:                                              -0.0095095569
     6 OT DIIS     0.15E+00    0.4     0.01338774      -170.4282245979 -3.58E-01
  Decoupling Energy:                                               0.0285729670
  Recoupling Energy:                                              -0.0095059768
     7 OT DIIS     0.15E+00    0.4     0.01223553      -170.6404411119 -2.12E-01
  Decoupling Energy:                                               0.0285094353
  Recoupling Energy:                                              -0.0095049201
     8 OT DIIS     0.15E+00    0.4     0.00939593      -170.7698484242 -1.29E-01
  Decoupling Energy:                                               0.0282441748
  Recoupling Energy:                                              -0.0095004152
     9 OT DIIS     0.15E+00    0.4     0.00785472      -170.9084427889 -1.39E-01
  Decoupling Energy:                                               0.0279101906
  Recoupling Energy:                                              -0.0094946455
    10 OT DIIS     0.15E+00    0.4     0.00736234      -170.9897522332 -8.13E-02
  Decoupling Energy:                                               0.0281404884
  Recoupling Energy:                                              -0.0094983069
    11 OT DIIS     0.15E+00    0.4     0.00524651      -171.0724464491 -8.27E-02
  Decoupling Energy:                                               0.0281254629
  Recoupling Energy:                                              -0.0094980278
    12 OT DIIS     0.15E+00    0.4     0.00465885      -171.1190403373 -4.66E-02
  Decoupling Energy:                                               0.0281034009
  Recoupling Energy:                                              -0.0094977072
    13 OT DIIS     0.15E+00    0.4     0.00333353      -171.1583725396 -3.93E-02
  Decoupling Energy:                                               0.0280414480
  Recoupling Energy:                                              -0.0094966580
    14 OT DIIS     0.15E+00    0.4     0.00271339      -171.1827720450 -2.44E-02
  Decoupling Energy:                                               0.0280251741
  Recoupling Energy:                                              -0.0094963360
    15 OT DIIS     0.15E+00    0.4     0.00244416      -171.2034216588 -2.06E-02
  Decoupling Energy:                                               0.0279139596
  Recoupling Energy:                                              -0.0094945560
    16 OT DIIS     0.15E+00    0.5     0.00196764      -171.2155002930 -1.21E-02
  Decoupling Energy:                                               0.0278336642
  Recoupling Energy:                                              -0.0094932440
    17 OT DIIS     0.15E+00    0.5     0.00184027      -171.2227361265 -7.24E-03
  Decoupling Energy:                                               0.0277686541
  Recoupling Energy:                                              -0.0094921407
    18 OT DIIS     0.15E+00    0.5     0.00161506      -171.2269297992 -4.19E-03
  Decoupling Energy:                                               0.0277134024
  Recoupling Energy:                                              -0.0094912456
    19 OT DIIS     0.15E+00    0.5     0.00127663      -171.2306531775 -3.72E-03
  Decoupling Energy:                                               0.0276602907
  Recoupling Energy:                                              -0.0094903623
    20 OT DIIS     0.15E+00    0.5     0.00102574      -171.2331399336 -2.49E-03
  Decoupling Energy:                                               0.0275889658
  Recoupling Energy:                                              -0.0094891974
    21 OT DIIS     0.15E+00    0.4     0.00081387      -171.2354352296 -2.30E-03
  Decoupling Energy:                                               0.0275370480
  Recoupling Energy:                                              -0.0094883538
    22 OT DIIS     0.15E+00    0.4     0.00067046      -171.2365198760 -1.08E-03
  Decoupling Energy:                                               0.0275024499
  Recoupling Energy:                                              -0.0094877755
    23 OT DIIS     0.15E+00    0.4     0.00056230      -171.2374672043 -9.47E-04
  Decoupling Energy:                                               0.0274761205
  Recoupling Energy:                                              -0.0094873477
    24 OT DIIS     0.15E+00    0.4     0.00048663      -171.2380529146 -5.86E-04
  Decoupling Energy:                                               0.0274638182
  Recoupling Energy:                                              -0.0094871447
    25 OT DIIS     0.15E+00    0.4     0.00045707      -171.2385215373 -4.69E-04
  Decoupling Energy:                                               0.0274342360
  Recoupling Energy:                                              -0.0094866659
    26 OT DIIS     0.15E+00    0.4     0.00049177      -171.2389416658 -4.20E-04
  Decoupling Energy:                                               0.0274408153
  Recoupling Energy:                                              -0.0094867708
    27 OT DIIS     0.15E+00    0.4     0.00037481      -171.2391080585 -1.66E-04
  Decoupling Energy:                                               0.0274298241
  Recoupling Energy:                                              -0.0094865904
    28 OT DIIS     0.15E+00    0.4     0.00033565      -171.2393692105 -2.61E-04
  Decoupling Energy:                                               0.0274229080
  Recoupling Energy:                                              -0.0094864810
    29 OT DIIS     0.15E+00    0.4     0.00027581      -171.2395485823 -1.79E-04
  Decoupling Energy:                                               0.0274206954
  Recoupling Energy:                                              -0.0094864480
    30 OT DIIS     0.15E+00    0.4     0.00024481      -171.2396679587 -1.19E-04
  Decoupling Energy:                                               0.0274219676
  Recoupling Energy:                                              -0.0094864675
    31 OT DIIS     0.15E+00    0.4     0.00021634      -171.2397869314 -1.19E-04
  Decoupling Energy:                                               0.0274234075
  Recoupling Energy:                                              -0.0094864944
    32 OT DIIS     0.15E+00    0.4     0.00020525      -171.2398851636 -9.82E-05
  Decoupling Energy:                                               0.0274260321
  Recoupling Energy:                                              -0.0094865383
    33 OT DIIS     0.15E+00    0.4     0.00018455      -171.2399587542 -7.36E-05
  Decoupling Energy:                                               0.0274340571
  Recoupling Energy:                                              -0.0094866721
    34 OT DIIS     0.15E+00    0.4     0.00018102      -171.2400457144 -8.70E-05
  Decoupling Energy:                                               0.0274360204
  Recoupling Energy:                                              -0.0094867042
    35 OT DIIS     0.15E+00    0.4     0.00017849      -171.2400610556 -1.53E-05
  Decoupling Energy:                                               0.0274431618
  Recoupling Energy:                                              -0.0094868216
    36 OT DIIS     0.15E+00    0.4     0.00014623      -171.2401166846 -5.56E-05
  Decoupling Energy:                                               0.0274489200
  Recoupling Energy:                                              -0.0094869176
    37 OT DIIS     0.15E+00    0.4     0.00012734      -171.2401511752 -3.45E-05
  Decoupling Energy:                                               0.0274534391
  Recoupling Energy:                                              -0.0094869932
    38 OT DIIS     0.15E+00    0.4     0.00011630      -171.2401788892 -2.77E-05
  Decoupling Energy:                                               0.0274591065
  Recoupling Energy:                                              -0.0094870853
    39 OT DIIS     0.15E+00    0.4     0.00010150      -171.2402007634 -2.19E-05
  Decoupling Energy:                                               0.0274634978
  Recoupling Energy:                                              -0.0094871584
    40 OT DIIS     0.15E+00    0.4     0.00009287      -171.2402201272 -1.94E-05
  Decoupling Energy:                                               0.0274676918
  Recoupling Energy:                                              -0.0094872269
    41 OT DIIS     0.15E+00    0.4     0.00008663      -171.2402370195 -1.69E-05
  Decoupling Energy:                                               0.0274726632
  Recoupling Energy:                                              -0.0094873091
    42 OT DIIS     0.15E+00    0.4     0.00008484      -171.2402570418 -2.00E-05
  Decoupling Energy:                                               0.0274748388
  Recoupling Energy:                                              -0.0094873443
    43 OT DIIS     0.15E+00    0.4     0.00008348      -171.2402664631 -9.42E-06
  Decoupling Energy:                                               0.0274788192
  Recoupling Energy:                                              -0.0094874093
    44 OT DIIS     0.15E+00    0.4     0.00007536      -171.2402818789 -1.54E-05
  Decoupling Energy:                                               0.0274817316
  Recoupling Energy:                                              -0.0094874572
    45 OT DIIS     0.15E+00    0.4     0.00006647      -171.2402924767 -1.06E-05
  Decoupling Energy:                                               0.0274835223
  Recoupling Energy:                                              -0.0094874866
    46 OT DIIS     0.15E+00    0.4     0.00006229      -171.2403028826 -1.04E-05
  Decoupling Energy:                                               0.0274855356
  Recoupling Energy:                                              -0.0094875188
    47 OT DIIS     0.15E+00    0.4     0.00005522      -171.2403105588 -7.68E-06
  Decoupling Energy:                                               0.0274868608
  Recoupling Energy:                                              -0.0094875406
    48 OT DIIS     0.15E+00    0.4     0.00005233      -171.2403181218 -7.56E-06
  Decoupling Energy:                                               0.0274881220
  Recoupling Energy:                                              -0.0094875606
    49 OT DIIS     0.15E+00    0.4     0.00004742      -171.2403241182 -6.00E-06
  Decoupling Energy:                                               0.0274882368
  Recoupling Energy:                                              -0.0094875622
    50 OT DIIS     0.15E+00    0.4     0.00004432      -171.2403310247 -6.91E-06
  Decoupling Energy:                                               0.0274886879
  Recoupling Energy:                                              -0.0094875692
    51 OT DIIS     0.15E+00    0.4     0.00004731      -171.2403342186 -3.19E-06
  Decoupling Energy:                                               0.0274884630
  Recoupling Energy:                                              -0.0094875649
    52 OT DIIS     0.15E+00    0.4     0.00004003      -171.2403387252 -4.51E-06
  Decoupling Energy:                                               0.0274882371
  Recoupling Energy:                                              -0.0094875610
    53 OT DIIS     0.15E+00    0.4     0.00003594      -171.2403418724 -3.15E-06
  Decoupling Energy:                                               0.0274873314
  Recoupling Energy:                                              -0.0094875459
    54 OT DIIS     0.15E+00    0.4     0.00003382      -171.2403451681 -3.30E-06
  Decoupling Energy:                                               0.0274869387
  Recoupling Energy:                                              -0.0094875389
    55 OT DIIS     0.15E+00    0.4     0.00003085      -171.2403472051 -2.04E-06
  Decoupling Energy:                                               0.0274861722
  Recoupling Energy:                                              -0.0094875262
    56 OT DIIS     0.15E+00    0.4     0.00002840      -171.2403492126 -2.01E-06
  Decoupling Energy:                                               0.0274855160
  Recoupling Energy:                                              -0.0094875150
    57 OT DIIS     0.15E+00    0.4     0.00002616      -171.2403508723 -1.66E-06
  Decoupling Energy:                                               0.0274843552
  Recoupling Energy:                                              -0.0094874959
    58 OT DIIS     0.15E+00    0.4     0.00002427      -171.2403525901 -1.72E-06
  Decoupling Energy:                                               0.0274838201
  Recoupling Energy:                                              -0.0094874869
    59 OT DIIS     0.15E+00    0.4     0.00002476      -171.2403537337 -1.14E-06
  Decoupling Energy:                                               0.0274828887
  Recoupling Energy:                                              -0.0094874714
    60 OT DIIS     0.15E+00    0.4     0.00002250      -171.2403548936 -1.16E-06
  Decoupling Energy:                                               0.0274821999
  Recoupling Energy:                                              -0.0094874600
    61 OT DIIS     0.15E+00    0.4     0.00002085      -171.2403558737 -9.80E-07
  Decoupling Energy:                                               0.0274811206
  Recoupling Energy:                                              -0.0094874423
    62 OT DIIS     0.15E+00    0.4     0.00001950      -171.2403570102 -1.14E-06
  Decoupling Energy:                                               0.0274805494
  Recoupling Energy:                                              -0.0094874327
    63 OT DIIS     0.15E+00    0.4     0.00001792      -171.2403576784 -6.68E-07
  Decoupling Energy:                                               0.0274798517
  Recoupling Energy:                                              -0.0094874213
    64 OT DIIS     0.15E+00    0.4     0.00001673      -171.2403583253 -6.47E-07
  Decoupling Energy:                                               0.0274793635
  Recoupling Energy:                                              -0.0094874131
    65 OT DIIS     0.15E+00    0.4     0.00001518      -171.2403587869 -4.62E-07
  Decoupling Energy:                                               0.0274787724
  Recoupling Energy:                                              -0.0094874035
    66 OT DIIS     0.15E+00    0.5     0.00001372      -171.2403593017 -5.15E-07
  Decoupling Energy:                                               0.0274785080
  Recoupling Energy:                                              -0.0094873991
    67 OT DIIS     0.15E+00    0.5     0.00001459      -171.2403596530 -3.51E-07
  Decoupling Energy:                                               0.0274781313
  Recoupling Energy:                                              -0.0094873929
    68 OT DIIS     0.15E+00    0.4     0.00001278      -171.2403599489 -2.96E-07
  Decoupling Energy:                                               0.0274779659
  Recoupling Energy:                                              -0.0094873903
    69 OT DIIS     0.15E+00    0.4     0.00001185      -171.2403602028 -2.54E-07
  Decoupling Energy:                                               0.0274777149
  Recoupling Energy:                                              -0.0094873863
    70 OT DIIS     0.15E+00    0.4     0.00001092      -171.2403604839 -2.81E-07
  Decoupling Energy:                                               0.0274776304
  Recoupling Energy:                                              -0.0094873849
    71 OT DIIS     0.15E+00    0.4     0.00001040      -171.2403606351 -1.51E-07
  Decoupling Energy:                                               0.0274775448
  Recoupling Energy:                                              -0.0094873835
    72 OT DIIS     0.15E+00    0.5     0.00000957      -171.2403607715 -1.36E-07
  Decoupling Energy:                                               0.0274775957
  Recoupling Energy:                                              -0.0094873844
    73 OT DIIS     0.15E+00    0.5     0.00000895      -171.2403609008 -1.29E-07
  Decoupling Energy:                                               0.0274775208
  Recoupling Energy:                                              -0.0094873833
    74 OT DIIS     0.15E+00    0.5     0.00000821      -171.2403610078 -1.07E-07
  Decoupling Energy:                                               0.0274776358
  Recoupling Energy:                                              -0.0094873852
    75 OT DIIS     0.15E+00    0.4     0.00000829      -171.2403611259 -1.18E-07
  Decoupling Energy:                                               0.0274776567
  Recoupling Energy:                                              -0.0094873855
    76 OT DIIS     0.15E+00    0.4     0.00000769      -171.2403612055 -7.96E-08
  Decoupling Energy:                                               0.0274777670
  Recoupling Energy:                                              -0.0094873874
    77 OT DIIS     0.15E+00    0.4     0.00000735      -171.2403612981 -9.27E-08
  Decoupling Energy:                                               0.0274778645
  Recoupling Energy:                                              -0.0094873891
    78 OT DIIS     0.15E+00    0.4     0.00000693      -171.2403614180 -1.20E-07
  Decoupling Energy:                                               0.0274779647
  Recoupling Energy:                                              -0.0094873907
    79 OT DIIS     0.15E+00    0.4     0.00000672      -171.2403615090 -9.10E-08
  Decoupling Energy:                                               0.0274780656
  Recoupling Energy:                                              -0.0094873924
    80 OT DIIS     0.15E+00    0.5     0.00000646      -171.2403615994 -9.05E-08
  Decoupling Energy:                                               0.0274781844
  Recoupling Energy:                                              -0.0094873944
    81 OT DIIS     0.15E+00    0.4     0.00000616      -171.2403616775 -7.81E-08
  Decoupling Energy:                                               0.0274782566
  Recoupling Energy:                                              -0.0094873956
    82 OT DIIS     0.15E+00    0.4     0.00000574      -171.2403617711 -9.36E-08
  Decoupling Energy:                                               0.0274783748
  Recoupling Energy:                                              -0.0094873975
    83 OT DIIS     0.15E+00    0.4     0.00000583      -171.2403618695 -9.84E-08
  Decoupling Energy:                                               0.0274784299
  Recoupling Energy:                                              -0.0094873985
    84 OT DIIS     0.15E+00    0.4     0.00000553      -171.2403619427 -7.32E-08
  Decoupling Energy:                                               0.0274785285
  Recoupling Energy:                                              -0.0094874001
    85 OT DIIS     0.15E+00    0.4     0.00000536      -171.2403620342 -9.15E-08
  Decoupling Energy:                                               0.0274786145
  Recoupling Energy:                                              -0.0094874015
    86 OT DIIS     0.15E+00    0.4     0.00000515      -171.2403621553 -1.21E-07
  Decoupling Energy:                                               0.0274786833
  Recoupling Energy:                                              -0.0094874026
    87 OT DIIS     0.15E+00    0.4     0.00000509      -171.2403622521 -9.68E-08
  Decoupling Energy:                                               0.0274787499
  Recoupling Energy:                                              -0.0094874037
    88 OT DIIS     0.15E+00    0.4     0.00000491      -171.2403623454 -9.33E-08
  Decoupling Energy:                                               0.0274788223
  Recoupling Energy:                                              -0.0094874049
    89 OT DIIS     0.15E+00    0.5     0.00000475      -171.2403624388 -9.35E-08
  Decoupling Energy:                                               0.0274788604
  Recoupling Energy:                                              -0.0094874055
    90 OT DIIS     0.15E+00    0.5     0.00000451      -171.2403625341 -9.53E-08
  Decoupling Energy:                                               0.0274789192
  Recoupling Energy:                                              -0.0094874065
    91 OT DIIS     0.15E+00    0.4     0.00000450      -171.2403626427 -1.09E-07
  Decoupling Energy:                                               0.0274789391
  Recoupling Energy:                                              -0.0094874068
    92 OT DIIS     0.15E+00    0.4     0.00000436      -171.2403627147 -7.20E-08
  Decoupling Energy:                                               0.0274789861
  Recoupling Energy:                                              -0.0094874075
    93 OT DIIS     0.15E+00    0.5     0.00000423      -171.2403628099 -9.53E-08
  Decoupling Energy:                                               0.0274790135
  Recoupling Energy:                                              -0.0094874079
    94 OT DIIS     0.15E+00    0.5     0.00000408      -171.2403629250 -1.15E-07
  Decoupling Energy:                                               0.0274790325
  Recoupling Energy:                                              -0.0094874082
    95 OT DIIS     0.15E+00    0.5     0.00000401      -171.2403630169 -9.19E-08
  Decoupling Energy:                                               0.0274790500
  Recoupling Energy:                                              -0.0094874085
    96 OT DIIS     0.15E+00    0.4     0.00000393      -171.2403631020 -8.51E-08
  Decoupling Energy:                                               0.0274790843
  Recoupling Energy:                                              -0.0094874090
    97 OT DIIS     0.15E+00    0.4     0.00000384      -171.2403631903 -8.83E-08
  Decoupling Energy:                                               0.0274790805
  Recoupling Energy:                                              -0.0094874089
    98 OT DIIS     0.15E+00    0.4     0.00000366      -171.2403632695 -7.92E-08
  Decoupling Energy:                                               0.0274791039
  Recoupling Energy:                                              -0.0094874093
    99 OT DIIS     0.15E+00    0.4     0.00000366      -171.2403633708 -1.01E-07
  Decoupling Energy:                                               0.0274791035
  Recoupling Energy:                                              -0.0094874093
   100 OT DIIS     0.15E+00    0.4     0.00000356      -171.2403634288 -5.80E-08
  Decoupling Energy:                                               0.0274791218
  Recoupling Energy:                                              -0.0094874095
   101 OT DIIS     0.15E+00    0.4     0.00000346      -171.2403635077 -7.89E-08
  Decoupling Energy:                                               0.0274791256
  Recoupling Energy:                                              -0.0094874096
   102 OT DIIS     0.15E+00    0.4     0.00000337      -171.2403635966 -8.89E-08
  Decoupling Energy:                                               0.0274791330
  Recoupling Energy:                                              -0.0094874097
   103 OT DIIS     0.15E+00    0.4     0.00000335      -171.2403636756 -7.90E-08
  Decoupling Energy:                                               0.0274791407
  Recoupling Energy:                                              -0.0094874098
   104 OT DIIS     0.15E+00    0.4     0.00000330      -171.2403637473 -7.17E-08
  Decoupling Energy:                                               0.0274791576
  Recoupling Energy:                                              -0.0094874101
   105 OT DIIS     0.15E+00    0.4     0.00000325      -171.2403638199 -7.27E-08
  Decoupling Energy:                                               0.0274791525
  Recoupling Energy:                                              -0.0094874100
   106 OT DIIS     0.15E+00    0.4     0.00000316      -171.2403638855 -6.56E-08
  Decoupling Energy:                                               0.0274791698
  Recoupling Energy:                                              -0.0094874102
   107 OT DIIS     0.15E+00    0.4     0.00000314      -171.2403639723 -8.67E-08
  Decoupling Energy:                                               0.0274791688
  Recoupling Energy:                                              -0.0094874102
   108 OT DIIS     0.15E+00    0.4     0.00000310      -171.2403640177 -4.54E-08
  Decoupling Energy:                                               0.0274791824
  Recoupling Energy:                                              -0.0094874104
   109 OT DIIS     0.15E+00    0.4     0.00000304      -171.2403640852 -6.75E-08
  Decoupling Energy:                                               0.0274791875
  Recoupling Energy:                                              -0.0094874105
   110 OT DIIS     0.15E+00    0.4     0.00000300      -171.2403641610 -7.58E-08
  Decoupling Energy:                                               0.0274791959
  Recoupling Energy:                                              -0.0094874107
   111 OT DIIS     0.15E+00    0.4     0.00000297      -171.2403642306 -6.96E-08
  Decoupling Energy:                                               0.0274792020
  Recoupling Energy:                                              -0.0094874108
   112 OT DIIS     0.15E+00    0.4     0.00000296      -171.2403642923 -6.16E-08
  Decoupling Energy:                                               0.0274792158
  Recoupling Energy:                                              -0.0094874110
   113 OT DIIS     0.15E+00    0.4     0.00000293      -171.2403643608 -6.85E-08
  Decoupling Energy:                                               0.0274792128
  Recoupling Energy:                                              -0.0094874109
   114 OT DIIS     0.15E+00    0.4     0.00000288      -171.2403644150 -5.43E-08
  Decoupling Energy:                                               0.0274792264
  Recoupling Energy:                                              -0.0094874112
   115 OT DIIS     0.15E+00    0.4     0.00000287      -171.2403645003 -8.53E-08
  Decoupling Energy:                                               0.0274792251
  Recoupling Energy:                                              -0.0094874111
   116 OT DIIS     0.15E+00    0.4     0.00000285      -171.2403645424 -4.21E-08
  Decoupling Energy:                                               0.0274792342
  Recoupling Energy:                                              -0.0094874113
   117 OT DIIS     0.15E+00    0.4     0.00000282      -171.2403646107 -6.83E-08
  Decoupling Energy:                                               0.0274792364
  Recoupling Energy:                                              -0.0094874113
   118 OT DIIS     0.15E+00    0.4     0.00000279      -171.2403646830 -7.23E-08
  Decoupling Energy:                                               0.0274792408
  Recoupling Energy:                                              -0.0094874114
   119 OT DIIS     0.15E+00    0.4     0.00000278      -171.2403647564 -7.34E-08
  Decoupling Energy:                                               0.0274792430
  Recoupling Energy:                                              -0.0094874115
   120 OT DIIS     0.15E+00    0.4     0.00000277      -171.2403648229 -6.65E-08
  Decoupling Energy:                                               0.0274792496
  Recoupling Energy:                                              -0.0094874116
   121 OT DIIS     0.15E+00    0.4     0.00000276      -171.2403648968 -7.39E-08
  Decoupling Energy:                                               0.0274792451
  Recoupling Energy:                                              -0.0094874115
   122 OT DIIS     0.15E+00    0.4     0.00000273      -171.2403649570 -6.02E-08
  Decoupling Energy:                                               0.0274792521
  Recoupling Energy:                                              -0.0094874116
   123 OT DIIS     0.15E+00    0.4     0.00000272      -171.2403650618 -1.05E-07
  Decoupling Energy:                                               0.0274792488
  Recoupling Energy:                                              -0.0094874116
   124 OT DIIS     0.15E+00    0.4     0.00000271      -171.2403651092 -4.74E-08
  Decoupling Energy:                                               0.0274792525
  Recoupling Energy:                                              -0.0094874116
   125 OT DIIS     0.15E+00    0.4     0.00000268      -171.2403651934 -8.42E-08
  Decoupling Energy:                                               0.0274792512
  Recoupling Energy:                                              -0.0094874116
   126 OT DIIS     0.15E+00    0.4     0.00000266      -171.2403652799 -8.64E-08
  Decoupling Energy:                                               0.0274792523
  Recoupling Energy:                                              -0.0094874116
   127 OT DIIS     0.15E+00    0.4     0.00000265      -171.2403653734 -9.36E-08
  Decoupling Energy:                                               0.0274792513
  Recoupling Energy:                                              -0.0094874116
   128 OT DIIS     0.15E+00    0.4     0.00000265      -171.2403654551 -8.17E-08
  Decoupling Energy:                                               0.0274792546
  Recoupling Energy:                                              -0.0094874117
   129 OT DIIS     0.15E+00    0.4     0.00000264      -171.2403655606 -1.06E-07
  Decoupling Energy:                                               0.0274792490
  Recoupling Energy:                                              -0.0094874116
   130 OT DIIS     0.15E+00    0.4     0.00000261      -171.2403656340 -7.34E-08
  Decoupling Energy:                                               0.0274792536
  Recoupling Energy:                                              -0.0094874117
   131 OT DIIS     0.15E+00    0.4     0.00000261      -171.2403657838 -1.50E-07
  Decoupling Energy:                                               0.0274792496
  Recoupling Energy:                                              -0.0094874116
   132 OT DIIS     0.15E+00    0.4     0.00000260      -171.2403658401 -5.63E-08
  Decoupling Energy:                                               0.0274792521
  Recoupling Energy:                                              -0.0094874116
   133 OT DIIS     0.15E+00    0.4     0.00000257      -171.2403659655 -1.25E-07
  Decoupling Energy:                                               0.0274792504
  Recoupling Energy:                                              -0.0094874116
   134 OT DIIS     0.15E+00    0.4     0.00000255      -171.2403660788 -1.13E-07
  Decoupling Energy:                                               0.0274792522
  Recoupling Energy:                                              -0.0094874116
   135 OT DIIS     0.15E+00    0.4     0.00000254      -171.2403662198 -1.41E-07
  Decoupling Energy:                                               0.0274792512
  Recoupling Energy:                                              -0.0094874116
   136 OT DIIS     0.15E+00    0.4     0.00000253      -171.2403663327 -1.13E-07
  Decoupling Energy:                                               0.0274792546
  Recoupling Energy:                                              -0.0094874116
   137 OT DIIS     0.15E+00    0.5     0.00000253      -171.2403665024 -1.70E-07
  Decoupling Energy:                                               0.0274792490
  Recoupling Energy:                                              -0.0094874115
   138 OT DIIS     0.15E+00    0.4     0.00000250      -171.2403665968 -9.44E-08
  Decoupling Energy:                                               0.0274792557
  Recoupling Energy:                                              -0.0094874116
   139 OT DIIS     0.15E+00    0.4     0.00000250      -171.2403668505 -2.54E-07
  Decoupling Energy:                                               0.0274792506
  Recoupling Energy:                                              -0.0094874115
   140 OT DIIS     0.15E+00    0.4     0.00000248      -171.2403669034 -5.29E-08
  Decoupling Energy:                                               0.0274792527
  Recoupling Energy:                                              -0.0094874115
   141 OT DIIS     0.15E+00    0.4     0.00000246      -171.2403671330 -2.30E-07
  Decoupling Energy:                                               0.0274792504
  Recoupling Energy:                                              -0.0094874114
   142 OT DIIS     0.15E+00    0.4     0.00000243      -171.2403672947 -1.62E-07
  Decoupling Energy:                                               0.0274792510
  Recoupling Energy:                                              -0.0094874114
   143 OT DIIS     0.15E+00    0.4     0.00000242      -171.2403675475 -2.53E-07
  Decoupling Energy:                                               0.0274792474
  Recoupling Energy:                                              -0.0094874113
   144 OT DIIS     0.15E+00    0.4     0.00000240      -171.2403676760 -1.29E-07
  Decoupling Energy:                                               0.0274792439
  Recoupling Energy:                                              -0.0094874112
   145 OT DIIS     0.15E+00    0.5     0.00000243      -171.2403680358 -3.60E-07
  Decoupling Energy:                                               0.0274792363
  Recoupling Energy:                                              -0.0094874110
   146 OT DIIS     0.15E+00    0.4     0.00000237      -171.2403681009 -6.51E-08
  Decoupling Energy:                                               0.0274792301
  Recoupling Energy:                                              -0.0094874108
   147 OT SD       0.15E+00    0.4     0.00000240      -171.2403685987 -4.98E-07
  Decoupling Energy:                                               0.0274791986
  Recoupling Energy:                                              -0.0094874103
   148 OT DIIS     0.15E+00    0.4     0.00000335      -171.2403686076 -8.95E-09
  Decoupling Energy:                                               0.0274791969
  Recoupling Energy:                                              -0.0094874101
   149 OT DIIS     0.15E+00    0.4     0.00000253      -171.2403692268 -6.19E-07
  Decoupling Energy:                                               0.0274791827
  Recoupling Energy:                                              -0.0094874098
   150 OT DIIS     0.15E+00    0.4     0.00000250      -171.2403694952 -2.68E-07
  Decoupling Energy:                                               0.0274791728
  Recoupling Energy:                                              -0.0094874096
   151 OT DIIS     0.15E+00    0.5     0.00000243      -171.2403696730 -1.78E-07
  Decoupling Energy:                                               0.0274791637
  Recoupling Energy:                                              -0.0094874095
   152 OT DIIS     0.15E+00    0.5     0.00000245      -171.2403698001 -1.27E-07
  Decoupling Energy:                                               0.0274791004
  Recoupling Energy:                                              -0.0094874083
   153 OT DIIS     0.15E+00    0.5     0.00000214      -171.2403703191 -5.19E-07
  Decoupling Energy:                                               0.0274790907
  Recoupling Energy:                                              -0.0094874081
   154 OT DIIS     0.15E+00    0.4     0.00000225      -171.2403704873 -1.68E-07
  Decoupling Energy:                                               0.0274790414
  Recoupling Energy:                                              -0.0094874071
   155 OT DIIS     0.15E+00    0.4     0.00000264      -171.2403709624 -4.75E-07
  Decoupling Energy:                                               0.0274789818
  Recoupling Energy:                                              -0.0094874060
   156 OT DIIS     0.15E+00    0.4     0.00000300      -171.2403714010 -4.39E-07
  Decoupling Energy:                                               0.0274789434
  Recoupling Energy:                                              -0.0094874053
   157 OT DIIS     0.15E+00    0.4     0.00000312      -171.2403716199 -2.19E-07
  Decoupling Energy:                                               0.0274789032
  Recoupling Energy:                                              -0.0094874046
   158 OT DIIS     0.15E+00    0.4     0.00000186      -171.2403717342 -1.14E-07
  Decoupling Energy:                                               0.0274788799
  Recoupling Energy:                                              -0.0094874042
   159 OT DIIS     0.15E+00    0.4     0.00000182      -171.2403718386 -1.04E-07
  Decoupling Energy:                                               0.0274788559
  Recoupling Energy:                                              -0.0094874038
   160 OT DIIS     0.15E+00    0.4     0.00000175      -171.2403719771 -1.38E-07
  Decoupling Energy:                                               0.0274788341
  Recoupling Energy:                                              -0.0094874034
   161 OT DIIS     0.15E+00    0.4     0.00000172      -171.2403720667 -8.97E-08
  Decoupling Energy:                                               0.0274787981
  Recoupling Energy:                                              -0.0094874028
   162 OT DIIS     0.15E+00    0.4     0.00000176      -171.2403722010 -1.34E-07
  Decoupling Energy:                                               0.0274787198
  Recoupling Energy:                                              -0.0094874014
   163 OT DIIS     0.15E+00    0.4     0.00000203      -171.2403725747 -3.74E-07
  Decoupling Energy:                                               0.0274786661
  Recoupling Energy:                                              -0.0094874004
   164 OT SD       0.15E+00    0.5     0.00000237      -171.2403727904 -2.16E-07
  Decoupling Energy:                                               0.0274786297
  Recoupling Energy:                                              -0.0094873998
   165 OT SD       0.15E+00    0.4     0.00000572      -171.2403727888  1.60E-09
  Decoupling Energy:                                               0.0274788065
  Recoupling Energy:                                              -0.0094874026
   166 OT DIIS     0.15E+00    0.4     0.00001830      -171.2403727219  6.69E-08
  Decoupling Energy:                                               0.0274786337
  Recoupling Energy:                                              -0.0094873998
   167 OT DIIS     0.15E+00    0.4     0.00000156      -171.2403729612 -2.39E-07
  Decoupling Energy:                                               0.0274786288
  Recoupling Energy:                                              -0.0094873997
   168 OT DIIS     0.15E+00    0.5     0.00000146      -171.2403730694 -1.08E-07
  Decoupling Energy:                                               0.0274786053
  Recoupling Energy:                                              -0.0094873992
   169 OT DIIS     0.15E+00    0.5     0.00000144      -171.2403733017 -2.32E-07
  Decoupling Energy:                                               0.0274785688
  Recoupling Energy:                                              -0.0094873986
   170 OT DIIS     0.15E+00    0.4     0.00000210      -171.2403735266 -2.25E-07
  Decoupling Energy:                                               0.0274785736
  Recoupling Energy:                                              -0.0094873986
   171 OT DIIS     0.15E+00    0.4     0.00000180      -171.2403736311 -1.05E-07
  Decoupling Energy:                                               0.0274786234
  Recoupling Energy:                                              -0.0094873994
   172 OT DIIS     0.15E+00    0.5     0.00000163      -171.2403737099 -7.88E-08
  Decoupling Energy:                                               0.0274786062
  Recoupling Energy:                                              -0.0094873991
   173 OT DIIS     0.15E+00    0.5     0.00000156      -171.2403737423 -3.24E-08
  Decoupling Energy:                                               0.0274786236
  Recoupling Energy:                                              -0.0094873993
   174 OT DIIS     0.15E+00    0.5     0.00000150      -171.2403738307 -8.84E-08
  Decoupling Energy:                                               0.0274786466
  Recoupling Energy:                                              -0.0094873997
   175 OT DIIS     0.15E+00    0.4     0.00000121      -171.2403739058 -7.51E-08
  Decoupling Energy:                                               0.0274786820
  Recoupling Energy:                                              -0.0094874002
   176 OT DIIS     0.15E+00    0.4     0.00000127      -171.2403739762 -7.04E-08
  Decoupling Energy:                                               0.0274787093
  Recoupling Energy:                                              -0.0094874007
   177 OT DIIS     0.15E+00    0.4     0.00000118      -171.2403740136 -3.74E-08
  Decoupling Energy:                                               0.0274787429
  Recoupling Energy:                                              -0.0094874012
   178 OT DIIS     0.15E+00    0.4     0.00000083      -171.2403740240 -1.04E-08

  *** SCF run converged in   178 steps ***


  Electronic density on regular grids:        -93.9999993034        0.0000006966
  Core density on regular grids:               93.0000000000        0.0000000000
  Total charge density on r-space grids:       -0.9999993034
  Total charge density g-space grids:          -0.9999993034

  Overlap energy of the core charge distribution:               0.00000615582574
  Self energy of the core charge distribution:               -391.34137466423209
  Core Hamiltonian energy:                                    118.22614291094520
  Hartree energy:                                             158.51240448120160
  Exchange-correlation energy:                                -44.25632316004973
  QM/MM Electrostatic energy:                                 -12.38122974773613

  Total energy:                                              -171.24037402404542
  Decoupling Energy:                                               0.0274787600
  Recoupling Energy:                                              -0.0094874015

 ENERGY| Total FORCE_EVAL ( QMMM ) energy (a.u.):           -393.645896135422731


  Translating the system in order to center the QM fragment in the QM box.

 Number of electrons:                                                         94
 Number of occupied orbitals:                                                 47
 Number of molecular orbitals:                                                47

 Number of orbital functions:                                                289
 Number of independent orbital functions:                                    289

 Extrapolation method: ASPC


 SCF WAVEFUNCTION OPTIMIZATION

  ----------------------------------- OT ---------------------------------------
  Minimizer      : DIIS                : direct inversion
                                         in the iterative subspace
                                         using   7 DIIS vectors
                                         safer DIIS on
  Preconditioner : FULL_SINGLE_INVERSE : inversion of 
                                         H + eS - 2*(Sc)(c^T*H*c+const)(Sc)^T
  Precond_solver : DEFAULT
  stepsize       :    0.15000000                  energy_gap     :    0.08000000
  eps_taylor     :   0.10000E-15                  max_taylor     :             4
  ----------------------------------- OT ---------------------------------------

  Step     Update method      Time    Convergence         Total energy    Change
  ------------------------------------------------------------------------------
  Decoupling Energy:                                               0.0274977377
  Recoupling Energy:                                              -0.0094877464
     1 OT DIIS     0.15E+00    0.4     0.00194379      -171.1333449633 -1.71E+02
  Decoupling Energy:                                               0.0273882968
  Recoupling Energy:                                              -0.0094860308
     2 OT DIIS     0.15E+00    0.4     0.00148649      -171.1366566705 -3.31E-03
  Decoupling Energy:                                               0.0274556329
  Recoupling Energy:                                              -0.0094871860
     3 OT DIIS     0.15E+00    0.4     0.00220522      -171.1364528966  2.04E-04
  Decoupling Energy:                                               0.0274863700
  Recoupling Energy:                                              -0.0094876146
     4 OT DIIS     0.15E+00    0.4     0.00158823      -171.1371075359 -6.55E-04
  Decoupling Energy:                                               0.0274651773
  Recoupling Energy:                                              -0.0094872656
     5 OT DIIS     0.15E+00    0.4     0.00063402      -171.1374669615 -3.59E-04
  Decoupling Energy:                                               0.0274337796
  Recoupling Energy:                                              -0.0094867859
     6 OT DIIS     0.15E+00    0.4     0.00030897      -171.1375340580 -6.71E-05
  Decoupling Energy:                                               0.0274423077
  Recoupling Energy:                                              -0.0094869161
     7 OT DIIS     0.15E+00    0.4     0.00018304      -171.1375516564 -1.76E-05
  Decoupling Energy:                                               0.0274457408
  Recoupling Energy:                                              -0.0094869694
     8 OT DIIS     0.15E+00    0.4     0.00011071      -171.1375570887 -5.43E-06
  Decoupling Energy:                                               0.0274442540
  Recoupling Energy:                                              -0.0094869485
     9 OT DIIS     0.15E+00    0.4     0.00007300      -171.1375585595 -1.47E-06
  Decoupling Energy:                                               0.0274445391
  Recoupling Energy:                                              -0.0094869516
    10 OT DIIS     0.15E+00    0.4     0.00004250      -171.1375592210 -6.61E-07
  Decoupling Energy:                                               0.0274450939
  Recoupling Energy:                                              -0.0094869591
    11 OT DIIS     0.15E+00    0.4     0.00001881      -171.1375595689 -3.48E-07
  Decoupling Energy:                                               0.0274446271
  Recoupling Energy:                                              -0.0094869530
    12 OT DIIS     0.15E+00    0.5     0.00001804      -171.1375596093 -4.04E-08
  Decoupling Energy:                                               0.0274446073
  Recoupling Energy:                                              -0.0094869527
    13 OT DIIS     0.15E+00    0.4     0.00001290      -171.1375596415 -3.22E-08
  Decoupling Energy:                                               0.0274446457
  Recoupling Energy:                                              -0.0094869530
    14 OT DIIS     0.15E+00    0.4     0.00000629      -171.1375596645 -2.30E-08
  Decoupling Energy:                                               0.0274445863
  Recoupling Energy:                                              -0.0094869520
    15 OT DIIS     0.15E+00    0.4     0.00000388      -171.1375596715 -6.99E-09
  Decoupling Energy:                                               0.0274446632
  Recoupling Energy:                                              -0.0094869532
    16 OT DIIS     0.15E+00    0.4     0.00000292      -171.1375596738 -2.35E-09
  Decoupling Energy:                                               0.0274447132
  Recoupling Energy:                                              -0.0094869540
    17 OT DIIS     0.15E+00    0.4     0.00000237      -171.1375596749 -1.09E-09
  Decoupling Energy:                                               0.0274446701
  Recoupling Energy:                                              -0.0094869534
    18 OT DIIS     0.15E+00    0.4     0.00000194      -171.1375596754 -5.20E-10
  Decoupling Energy:                                               0.0274446096
  Recoupling Energy:                                              -0.0094869524
    19 OT DIIS     0.15E+00    0.4     0.00000113      -171.1375596760 -5.62E-10
  Decoupling Energy:                                               0.0274446331
  Recoupling Energy:                                              -0.0094869527
    20 OT DIIS     0.15E+00    0.4     0.00000096      -171.1375596762 -1.88E-10

  *** SCF run converged in    20 steps ***


  Electronic density on regular grids:        -93.9999994817        0.0000005183
  Core density on regular grids:               93.0000000001        0.0000000001
  Total charge density on r-space grids:       -0.9999994816
  Total charge density g-space grids:          -0.9999994816

  Overlap energy of the core charge distribution:               0.00000614794253
  Self energy of the core charge distribution:               -391.34137466423209
  Core Hamiltonian energy:                                    118.27296594302751
  Hartree energy:                                             158.46838498083855
  Exchange-correlation energy:                                -44.26589871042212
  QM/MM Electrostatic energy:                                 -12.27164337334517

  Total energy:                                              -171.13755967619076
  Decoupling Energy:                                               0.0274446514
  Recoupling Energy:                                              -0.0094869530

 ENERGY| Total FORCE_EVAL ( QMMM ) energy (a.u.):           -394.592824473852829


 --------  Informations at step =     1 ------------
  Optimization Method        =                LBFGS
  Total Energy               =      -394.5928244739
  Real energy change         =        -0.9469283384
  Decrease in energy         =                  YES
  Used time                  =               95.032

  Convergence check :
  Max. step size             =         0.1454734090
  Conv. limit for step size  =         0.0050000000
  Convergence in step size   =                   NO
  RMS step size              =         0.0026646494
  Conv. limit for RMS step   =         0.0050000000
  Convergence in RMS step    =                  YES
  Max. gradient              =         0.0777986718
  Conv. limit for gradients  =         0.0050000000
  Conv. for gradients        =                   NO
  RMS gradient               =         0.0020386040
  Conv. limit for RMS grad.  =         0.0050000000
  Conv. in RMS gradients     =                  YES
 ---------------------------------------------------

 --------------------------
 OPTIMIZATION STEP:      2
 --------------------------

  Translating the system in order to center the QM fragment in the QM box.

 Number of electrons:                                                         94
 Number of occupied orbitals:                                                 47
 Number of molecular orbitals:                                                47

 Number of orbital functions:                                                289
 Number of independent orbital functions:                                    289

 Extrapolation method: ASPC


 SCF WAVEFUNCTION OPTIMIZATION

  ----------------------------------- OT ---------------------------------------
  Minimizer      : DIIS                : direct inversion
                                         in the iterative subspace
                                         using   7 DIIS vectors
                                         safer DIIS on
  Preconditioner : FULL_SINGLE_INVERSE : inversion of 
                                         H + eS - 2*(Sc)(c^T*H*c+const)(Sc)^T
  Precond_solver : DEFAULT
  stepsize       :    0.15000000                  energy_gap     :    0.08000000
  eps_taylor     :   0.10000E-15                  max_taylor     :             4
  ----------------------------------- OT ---------------------------------------

  Step     Update method      Time    Convergence         Total energy    Change
  ------------------------------------------------------------------------------
  Decoupling Energy:                                               0.0273897942
  Recoupling Energy:                                              -0.0094858607
     1 OT DIIS     0.15E+00    0.4     0.00258040      -171.0003869181 -1.71E+02
  Decoupling Energy:                                               0.0273098269
  Recoupling Energy:                                              -0.0094847520
     2 OT DIIS     0.15E+00    0.5     0.00378736      -171.0032034230 -2.82E-03
  Decoupling Energy:                                               0.0273328873
  Recoupling Energy:                                              -0.0094847030
     3 OT DIIS     0.15E+00    0.4     0.00229810      -171.0057072430 -2.50E-03
  Decoupling Energy:                                               0.0273180709
  Recoupling Energy:                                              -0.0094845922
     4 OT DIIS     0.15E+00    0.5     0.00228133      -171.0061582733 -4.51E-04
  Decoupling Energy:                                               0.0273126332
  Recoupling Energy:                                              -0.0094845430
     5 OT DIIS     0.15E+00    0.4     0.00068543      -171.0069780886 -8.20E-04
  Decoupling Energy:                                               0.0273211156
  Recoupling Energy:                                              -0.0094846594
     6 OT DIIS     0.15E+00    0.4     0.00037677      -171.0070610580 -8.30E-05
  Decoupling Energy:                                               0.0273209619
  Recoupling Energy:                                              -0.0094846543
     7 OT DIIS     0.15E+00    0.4     0.00033351      -171.0070737392 -1.27E-05
  Decoupling Energy:                                               0.0273213043
  Recoupling Energy:                                              -0.0094846601
     8 OT DIIS     0.15E+00    0.4     0.00013455      -171.0070908753 -1.71E-05
  Decoupling Energy:                                               0.0273224340
  Recoupling Energy:                                              -0.0094846810
     9 OT DIIS     0.15E+00    0.4     0.00007275      -171.0070936500 -2.77E-06
  Decoupling Energy:                                               0.0273216140
  Recoupling Energy:                                              -0.0094846674
    10 OT DIIS     0.15E+00    0.4     0.00004415      -171.0070944028 -7.53E-07
  Decoupling Energy:                                               0.0273208218
  Recoupling Energy:                                              -0.0094846562
    11 OT DIIS     0.15E+00    0.4     0.00002520      -171.0070947773 -3.75E-07
  Decoupling Energy:                                               0.0273213485
  Recoupling Energy:                                              -0.0094846631
    12 OT DIIS     0.15E+00    0.4     0.00002028      -171.0070948511 -7.37E-08
  Decoupling Energy:                                               0.0273215317
  Recoupling Energy:                                              -0.0094846661
    13 OT DIIS     0.15E+00    0.4     0.00001432      -171.0070948948 -4.37E-08
  Decoupling Energy:                                               0.0273214927
  Recoupling Energy:                                              -0.0094846658
    14 OT DIIS     0.15E+00    0.4     0.00000668      -171.0070949249 -3.01E-08
  Decoupling Energy:                                               0.0273214370
  Recoupling Energy:                                              -0.0094846649
    15 OT DIIS     0.15E+00    0.4     0.00000562      -171.0070949297 -4.80E-09
  Decoupling Energy:                                               0.0273214329
  Recoupling Energy:                                              -0.0094846648
    16 OT DIIS     0.15E+00    0.4     0.00000283      -171.0070949343 -4.56E-09
  Decoupling Energy:                                               0.0273214189
  Recoupling Energy:                                              -0.0094846646
    17 OT DIIS     0.15E+00    0.4     0.00000215      -171.0070949352 -9.51E-10
  Decoupling Energy:                                               0.0273214215
  Recoupling Energy:                                              -0.0094846647
    18 OT DIIS     0.15E+00    0.4     0.00000149      -171.0070949358 -5.42E-10
  Decoupling Energy:                                               0.0273214474
  Recoupling Energy:                                              -0.0094846650
    19 OT DIIS     0.15E+00    0.4     0.00000093      -171.0070949361 -3.67E-10

  *** SCF run converged in    19 steps ***


  Electronic density on regular grids:        -94.0000001324       -0.0000001324
  Core density on regular grids:               93.0000000001        0.0000000001
  Total charge density on r-space grids:       -1.0000001324
  Total charge density g-space grids:          -1.0000001324

  Overlap energy of the core charge distribution:               0.00000575773851
  Self energy of the core charge distribution:               -391.34137466423209
  Core Hamiltonian energy:                                    118.17735011398567
  Hartree energy:                                             158.53852953543787
  Exchange-correlation energy:                                -44.24233488372977
  QM/MM Electrostatic energy:                                 -12.13927079534818

  Total energy:                                              -171.00709493614801
  Decoupling Energy:                                               0.0273214379
  Recoupling Energy:                                              -0.0094846649

 ENERGY| Total FORCE_EVAL ( QMMM ) energy (a.u.):           -395.365125191289280


 --------  Informations at step =     2 ------------
  Optimization Method        =                LBFGS
  Total Energy               =      -395.3651251913
  Real energy change         =        -0.7723007174
  Decrease in energy         =                  YES
  Used time                  =               13.569

  Convergence check :
  Max. step size             =         0.1639117365
  Conv. limit for step size  =         0.0050000000
  Convergence in step size   =                   NO
  RMS step size              =         0.0039996180
  Conv. limit for RMS step   =         0.0050000000
  Convergence in RMS step    =                  YES
  Max. gradient              =         0.0507788914
  Conv. limit for gradients  =         0.0050000000
  Conv. for gradients        =                   NO
  RMS gradient               =         0.0015730798
  Conv. limit for RMS grad.  =         0.0050000000
  Conv. in RMS gradients     =                  YES
 ---------------------------------------------------

 --------------------------
 OPTIMIZATION STEP:      3
 --------------------------

  Translating the system in order to center the QM fragment in the QM box.

 Number of electrons:                                                         94
 Number of occupied orbitals:                                                 47
 Number of molecular orbitals:                                                47

 Number of orbital functions:                                                289
 Number of independent orbital functions:                                    289

 Extrapolation method: ASPC


 SCF WAVEFUNCTION OPTIMIZATION

  ----------------------------------- OT ---------------------------------------
  Minimizer      : DIIS                : direct inversion
                                         in the iterative subspace
                                         using   7 DIIS vectors
                                         safer DIIS on
  Preconditioner : FULL_SINGLE_INVERSE : inversion of 
                                         H + eS - 2*(Sc)(c^T*H*c+const)(Sc)^T
  Precond_solver : DEFAULT
  stepsize       :    0.15000000                  energy_gap     :    0.08000000
  eps_taylor     :   0.10000E-15                  max_taylor     :             4
  ----------------------------------- OT ---------------------------------------

  Step     Update method      Time    Convergence         Total energy    Change
  ------------------------------------------------------------------------------
  Decoupling Energy:                                               0.0273326878
  Recoupling Energy:                                              -0.0094847112
     1 OT DIIS     0.15E+00    0.3     0.00598153      -170.8641862813 -1.71E+02
  Decoupling Energy:                                               0.0276246508
  Recoupling Energy:                                              -0.0094890346
     2 OT DIIS     0.15E+00    0.4     0.00770396      -170.8799234605 -1.57E-02
  Decoupling Energy:                                               0.0274995651
  Recoupling Energy:                                              -0.0094879873
     3 OT DIIS     0.15E+00    0.4     0.00428719      -170.8931668923 -1.32E-02
  Decoupling Energy:                                               0.0275472821
  Recoupling Energy:                                              -0.0094883511
     4 OT DIIS     0.15E+00    0.4     0.00159718      -170.8980128896 -4.85E-03
  Decoupling Energy:                                               0.0275420056
  Recoupling Energy:                                              -0.0094883024
     5 OT DIIS     0.15E+00    0.4     0.00185413      -170.8982100326 -1.97E-04
  Decoupling Energy:                                               0.0275544615
  Recoupling Energy:                                              -0.0094885357
     6 OT DIIS     0.15E+00    0.4     0.00063492      -170.8987840253 -5.74E-04
  Decoupling Energy:                                               0.0275709207
  Recoupling Energy:                                              -0.0094888152
     7 OT DIIS     0.15E+00    0.4     0.00040043      -170.8988517597 -6.77E-05
  Decoupling Energy:                                               0.0275653947
  Recoupling Energy:                                              -0.0094887237
     8 OT DIIS     0.15E+00    0.4     0.00022835      -170.8988789106 -2.72E-05
  Decoupling Energy:                                               0.0275620718
  Recoupling Energy:                                              -0.0094886674
     9 OT DIIS     0.15E+00    0.4     0.00013125      -170.8988859343 -7.02E-06
  Decoupling Energy:                                               0.0275642365
  Recoupling Energy:                                              -0.0094887030
    10 OT DIIS     0.15E+00    0.4     0.00006086      -170.8988890135 -3.08E-06
  Decoupling Energy:                                               0.0275651139
  Recoupling Energy:                                              -0.0094887140
    11 OT DIIS     0.15E+00    0.4     0.00004599      -170.8988894802 -4.67E-07
  Decoupling Energy:                                               0.0275642563
  Recoupling Energy:                                              -0.0094887035
    12 OT DIIS     0.15E+00    0.4     0.00001950      -170.8988899433 -4.63E-07
  Decoupling Energy:                                               0.0275644307
  Recoupling Energy:                                              -0.0094887053
    13 OT DIIS     0.15E+00    0.4     0.00001646      -170.8988900044 -6.11E-08
  Decoupling Energy:                                               0.0275644004
  Recoupling Energy:                                              -0.0094887047
    14 OT DIIS     0.15E+00    0.4     0.00001361      -170.8988900275 -2.31E-08
  Decoupling Energy:                                               0.0275643555
  Recoupling Energy:                                              -0.0094887043
    15 OT DIIS     0.15E+00    0.4     0.00000648      -170.8988900575 -3.00E-08
  Decoupling Energy:                                               0.0275644507
  Recoupling Energy:                                              -0.0094887059
    16 OT DIIS     0.15E+00    0.4     0.00000489      -170.8988900629 -5.45E-09
  Decoupling Energy:                                               0.0275644778
  Recoupling Energy:                                              -0.0094887062
    17 OT DIIS     0.15E+00    0.4     0.00000315      -170.8988900663 -3.39E-09
  Decoupling Energy:                                               0.0275644153
  Recoupling Energy:                                              -0.0094887052
    18 OT DIIS     0.15E+00    0.4     0.00000200      -170.8988900677 -1.36E-09
  Decoupling Energy:                                               0.0275644078
  Recoupling Energy:                                              -0.0094887052
    19 OT DIIS     0.15E+00    0.4     0.00000156      -170.8988900682 -4.84E-10
  Decoupling Energy:                                               0.0275644386
  Recoupling Energy:                                              -0.0094887056
[...]
 flops    25 x    15 x    18             89059500       0.0%    100.0%      0.0%
 flops    15 x    15 x    15            105583500       0.0%    100.0%      0.0%
 flops    25 x    15 x    15            113692500       0.0%    100.0%      0.0%
 flops     5 x     5 x    15            121374000       0.0%    100.0%      0.0%
 flops    13 x    32 x    32            121724928       0.0%    100.0%      0.0%
 flops    36 x    15 x     5            142495200       0.0%    100.0%      0.0%
 flops    32 x    15 x     5            156691200       0.0%    100.0%      0.0%
 flops    15 x    32 x     5            159129600       0.0%    100.0%      0.0%
 flops    25 x    32 x    18            189993600       0.0%    100.0%      0.0%
 flops    15 x    15 x    18            201398400       0.0%    100.0%      0.0%
 flops    39 x    15 x     5            205826400       0.0%    100.0%      0.0%
 flops    15 x    15 x    32            225244800       0.0%    100.0%      0.0%
 flops    15 x    32 x    15            225244800       0.0%    100.0%      0.0%
 flops    32 x    15 x    15            225244800       0.0%    100.0%      0.0%
 flops    25 x    15 x    32            242544000       0.0%    100.0%      0.0%
 flops    25 x    32 x    15            242544000       0.0%    100.0%      0.0%
 flops     5 x     5 x    32            258931200       0.0%    100.0%      0.0%
 flops    36 x    32 x     5            303989760       0.0%    100.0%      0.0%
 flops    25 x    15 x    13            321603750       0.0%    100.0%      0.0%
 flops    32 x    32 x     5            339476480       0.0%    100.0%      0.0%
 flops    36 x    15 x    18            384737040       0.0%    100.0%      0.0%
 flops    32 x    15 x    18            423066240       0.0%    100.0%      0.0%
 flops    15 x    32 x    18            429649920       0.0%    100.0%      0.0%
 flops    39 x    32 x     5            439096320       0.0%    100.0%      0.0%
 flops    13 x     5 x    15            473358600       0.0%    100.0%      0.0%
 flops     5 x    13 x    15            473358600       0.0%    100.0%      0.0%
 flops     5 x    15 x     5            478615500       0.0%    100.0%      0.0%
 flops    32 x    32 x    15            480522240       0.0%    100.0%      0.0%
 flops    15 x    32 x    32            480522240       0.0%    100.0%      0.0%
 flops    32 x    15 x    32            480522240       0.0%    100.0%      0.0%
 flops    36 x    15 x    15            491151600       0.0%    100.0%      0.0%
 flops    25 x    32 x    32            517427200       0.0%    100.0%      0.0%
 flops    39 x    15 x    18            555731280       0.0%    100.0%      0.0%
 flops    25 x    32 x    13            686088000       0.0%    100.0%      0.0%
 flops    39 x    15 x    15            709441200       0.0%    100.0%      0.0%
 flops    15 x    15 x    13            727272000       0.0%    100.0%      0.0%
 flops    36 x    32 x    18            820772352       0.0%    100.0%      0.0%
 flops    32 x    32 x    18            916586496       0.0%    100.0%      0.0%
 flops    13 x     5 x    32           1009831680       0.0%    100.0%      0.0%
 flops     5 x    13 x    32           1009831680       0.0%    100.0%      0.0%
 flops     5 x    32 x     5           1021046400       0.0%    100.0%      0.0%
 flops    32 x    32 x    32           1025114112       0.0%    100.0%      0.0%
 flops    36 x    15 x    32           1047790080       0.0%    100.0%      0.0%
 flops    36 x    32 x    15           1047790080       0.0%    100.0%      0.0%
 flops    39 x    32 x    18           1185560064       0.0%    100.0%      0.0%
 flops    36 x    15 x    13           1389328200       0.0%    100.0%      0.0%
 flops    39 x    32 x    15           1513474560       0.0%    100.0%      0.0%
 flops    39 x    15 x    32           1513474560       0.0%    100.0%      0.0%
 flops    32 x    15 x    13           1527739200       0.0%    100.0%      0.0%
 flops    15 x    32 x    13           1551513600       0.0%    100.0%      0.0%
 flops    39 x    15 x    13           2006807400       0.0%    100.0%      0.0%
 flops     5 x    15 x    13           2036291400       0.0%    100.0%      0.0%
 flops    13 x    15 x     5           2036291400       0.0%    100.0%      0.0%
 flops    13 x    13 x    15           2125810440       0.0%    100.0%      0.0%
 flops    36 x    32 x    32           2235285504       0.0%    100.0%      0.0%
 flops    36 x    32 x    13           2963900160       0.0%    100.0%      0.0%
 flops    39 x    32 x    32           3228745728       0.0%    100.0%      0.0%
 flops    32 x    32 x    13           3309895680       0.0%    100.0%      0.0%
 flops    39 x    32 x    13           4281189120       0.0%    100.0%      0.0%
 flops    13 x    32 x     5           4344088320       0.0%    100.0%      0.0%
 flops     5 x    32 x    13           4344088320       0.0%    100.0%      0.0%
 flops    13 x    13 x    32           4535062272       0.0%    100.0%      0.0%
 flops    13 x    15 x    13           8663494320       0.0%    100.0%      0.0%
 flops    13 x    32 x    13          18482121216       0.0%    100.0%      0.0%
 flops inhomo. stacks                  3464369928     100.0%      0.0%      0.0%
 flops total                        97.169705E+09       3.6%     96.4%      0.0%
 flops max/rank                     13.449578E+09       6.0%     94.0%      0.0%
 matmuls inhomo. stacks                    136418     100.0%      0.0%      0.0%
 matmuls total                           13111750       1.0%     99.0%      0.0%
 number of processed stacks               6398738       2.1%     97.9%      0.0%
 average stack size                                     1.0       2.1       0.0
 marketing flops                   105.176228E+09
 -------------------------------------------------------------------------------
 # multiplications                          44342
 max memory usage/rank              32.591872E+06
 # max total images/rank                        3
 # max 3D layers                                1
 # MPI messages exchanged               783257088
 MPI messages size (bytes):
  total size                       229.794103E+09
  min size                           0.000000E+00
  max size                           9.984000E+03
  average size                     293.382721E+00
 MPI breakdown and total messages size (bytes):
             size <=      128           712458994                        0
       128 < size <=     8192            68735362             210086565408
      8192 < size <=    32768             2062732              19915382784
     32768 < size <=   131072                   0                        0
    131072 < size <=  4194304                   0                        0
   4194304 < size <= 16777216                   0                        0
  16777216 < size                               0                        0
 -------------------------------------------------------------------------------

 *** WARNING in dbcsr/mm/dbcsr_mm.F:268 :: Using a non-square number of ***
 *** MPI ranks might lead to poor performance.                          ***
 *** Used ranks: 192                                                    ***
 *** Suggested: 196 400                                                 ***

 -------------------------------------------------------------------------------

 MEMORY| Estimated peak process memory [MiB]                                  32

 -------------------------------------------------------------------------------
 -                                                                             -
 -                         MESSAGE PASSING PERFORMANCE                         -
 -                                                                             -
 -------------------------------------------------------------------------------

 ROUTINE             CALLS      AVE VOLUME [Bytes]
 MP_Group             1919
 MP_Bcast            41478                 516087.
 MP_Allreduce       365886                  62291.
 MP_Sync               516
 MP_Alltoall        195820                 444433.
 MP_ISendRecv      1679654                  14580.
 MP_Wait          11429947
 MP_comm_split         384
 MP_ISend          8862481                   5622.
 MP_IRecv          8829144                   5594.
 MP_Recv              3266                   4624.
 MP_Memory         3325846
 -------------------------------------------------------------------------------


 -------------------------------------------------------------------------------
 -                                                                             -
 -                           R E F E R E N C E S                               -
 -                                                                             -
 -------------------------------------------------------------------------------
 
 CP2K version 6.1, the CP2K developers group (2018).
 CP2K is freely available from https://www.cp2k.org/ .

 Schuett, Ole; Messmer, Peter; Hutter, Juerg; VandeVondele, Joost. 
 Electronic Structure Calculations on Graphics Processing Units, John Wiley & Sons, Ltd, 173-190 (2016). 
 GPU-Accelerated Sparse Matrix-Matrix Multiplication for Linear Scaling Density Functional Theory.
 http://dx.doi.org/10.1002/9781118670712.ch8


 Borstnik, U; VandeVondele, J; Weber, V; Hutter, J. 
 PARALLEL COMPUTING, 40 (5-6), 47-58 (2014). 
 Sparse matrix multiplication: The distributed block-compressed sparse
 row library.
 http://dx.doi.org/10.1016/j.parco.2014.03.012


 Hutter, J; Iannuzzi, M; Schiffmann, F; VandeVondele, J. 
 WILEY INTERDISCIPLINARY REVIEWS-COMPUTATIONAL MOLECULAR SCIENCE, 4 (1), 15-25 (2014). 
 CP2K: atomistic simulations of condensed matter systems.
 http://dx.doi.org/10.1002/wcms.1159


 VandeVondele, J; Hutter, J. 
 JOURNAL OF CHEMICAL PHYSICS, 127 (11), 114105 (2007). 
 Gaussian basis sets for accurate calculations on molecular systems in
 gas and condensed phases.
 http://dx.doi.org/10.1063/1.2770708


 Laino, T; Mohamed, F; Laio, A; Parrinello, M. 
 JOURNAL OF CHEMICAL THEORY AND COMPUTATION, 2 (5), 1370-1378 (2006). 
 An efficient linear-scaling electrostatic coupling for treating
 periodic boundary conditions in QM/MM simulations.
 http://dx.doi.org/10.1021/ct6001169


 Laino, T; Mohamed, F; Laio, A; Parrinello, M. 
 JOURNAL OF CHEMICAL THEORY AND COMPUTATION, 1 (6), 1176-1184 (2005). 
 An efficient real space multigrid QM/MM electrostatic coupling.
 http://dx.doi.org/10.1021/ct050123f


 Krack, M. 
 THEORETICAL CHEMISTRY ACCOUNTS, 114 (1-3), 145-152 (2005). 
 Pseudopotentials for H to Kr optimized for gradient-corrected
 exchange-correlation functionals.
 http://dx.doi.org/10.1007/s00214-005-0655-y


 VandeVondele, J; Krack, M; Mohamed, F; Parrinello, M; Chassaing, T;
 Hutter, J. COMPUTER PHYSICS COMMUNICATIONS, 167 (2), 103-128 (2005). 
 QUICKSTEP: Fast and accurate density functional calculations using a
 mixed Gaussian and plane waves approach.
 http://dx.doi.org/10.1016/j.cpc.2004.12.014


 Frigo, M; Johnson, SG. 
 PROCEEDINGS OF THE IEEE, 93 (2), 216-231 (2005). 
 The design and implementation of FFTW3.
 http://dx.doi.org/10.1109/JPROC.2004.840301


 Kolafa, J. 
 JOURNAL OF COMPUTATIONAL CHEMISTRY, 25 (3), 335-342 (2004). 
 Time-reversible always stable predictor-corrector method for molecular dynamics of polarizable molecules.
 http://dx.doi.org/10.1002/jcc.10385


 VandeVondele, J; Hutter, J. 
 JOURNAL OF CHEMICAL PHYSICS, 118 (10), 4365-4369 (2003). 
 An efficient orbital transformation method for electronic structure
 calculations.
 http://dx.doi.org/10.1063/1.1543154


 Hartwigsen, C; Goedecker, S; Hutter, J. 
 PHYSICAL REVIEW B, 58 (7), 3641-3662 (1998). 
 Relativistic separable dual-space Gaussian pseudopotentials from H to Rn.
 http://dx.doi.org/10.1103/PhysRevB.58.3641


 Lippert, G; Hutter, J; Parrinello, M. 
 MOLECULAR PHYSICS, 92 (3), 477-487 (1997). 
 A hybrid Gaussian and plane wave density functional scheme.
 http://dx.doi.org/10.1080/002689797170220


 Perdew, JP; Burke, K; Ernzerhof, M. 
 PHYSICAL REVIEW LETTERS, 77 (18), 3865-3868 (1996). 
 Generalized gradient approximation made simple.
 http://dx.doi.org/10.1103/PhysRevLett.77.3865


 Goedecker, S; Teter, M; Hutter, J. 
 PHYSICAL REVIEW B, 54 (3), 1703-1710 (1996). 
 Separable dual-space Gaussian pseudopotentials.
 http://dx.doi.org/10.1103/PhysRevB.54.1703


 ESSMANN, U; PERERA, L; BERKOWITZ, ML; DARDEN, T; LEE, H; PEDERSEN, LG. 
 JOURNAL OF CHEMICAL PHYSICS, 103 (19), 8577-8593 (1995). 
 A SMOOTH PARTICLE MESH EWALD METHOD.
 http://dx.doi.org/10.1063/1.470117


 BLOCHL, PE. 
 JOURNAL OF CHEMICAL PHYSICS, 103 (17), 7422-7428 (1995). 
 ELECTROSTATIC DECOUPLING OF PERIODIC IMAGES OF PLANE-WAVE-EXPANDED
 DENSITIES AND DERIVED ATOMIC POINT CHARGES.
 http://dx.doi.org/10.1063/1.470314


 BYRD, RH; LU, PH; NOCEDAL, J; ZHU, CY. 
 SIAM JOURNAL ON SCIENTIFIC COMPUTING, 16 (5), 1190-1208 (1995). 
 A LIMITED MEMORY ALGORITHM FOR BOUND CONSTRAINED OPTIMIZATION.
 http://dx.doi.org/10.1137/0916069


 -------------------------------------------------------------------------------
 -                                                                             -
 -                                T I M I N G                                  -
 -                                                                             -
 -------------------------------------------------------------------------------
 SUBROUTINE                       CALLS  ASD         SELF TIME        TOTAL TIME
                                MAXIMUM       AVERAGE  MAXIMUM  AVERAGE  MAXIMUM
 CP2K                                 1  1.0    0.071    0.099 1645.698 1645.699
 cp_geo_opt                           1  2.0    0.003    0.004 1634.174 1634.174
 geoopt_lbfgs                         1  3.0    0.001    0.009 1634.171 1634.171
 cp_opt_gopt_step                   123  4.0    0.333    1.261 1625.376 1625.386
 cp_eval_at                         127  5.0    0.683    0.764 1582.164 1582.185
 qs_forces                          126  6.0    0.015    0.017  935.883  935.922
 qs_energies                        127  7.0    0.005    0.005  900.654  900.697
 scf_env_do_scf                     127  8.0    0.006    0.009  872.731  872.731
 scf_env_do_scf_inner_loop         2072  9.0    0.054    0.135  834.434  834.649
 rebuild_ks_matrix                 2198 10.8    0.005    0.006  534.489  535.000
 qs_ks_build_kohn_sham_matrix      2198 11.8    0.204    0.224  534.483  534.994
 qs_ks_update_qs_env               2199 10.0    0.019    0.020  499.317  499.797
 qmmm_forces                        127  6.0    0.304    0.330  359.399  359.425
 qmmm_forces_with_gaussian          126  7.0    0.224    0.281  351.138  354.227
 pw_transfer                      45362 14.4    2.049    2.512  325.186  329.880
 fft_wrap_pw1pw2                  38133 15.5    0.230    0.254  321.208  325.851
 fft_wrap_pw1pw2_150              24434 16.7    9.865   11.889  306.338  310.963
 fft3d_ps                         38133 17.5   57.639   90.000  296.620  302.393
 rs_pw_transfer                   18349 14.2    0.168    0.220  264.035  274.970
 qmmm_el_coupling                   127  6.0    0.003    0.004  265.682  268.039
 qmmm_elec_with_gaussian            127  7.0    0.079    0.095  265.660  268.020
 pw_restrict_s3                     378  8.0  174.641  176.292  245.610  248.774
 qs_vxc_create                     2198 12.8    0.024    0.031  246.365  246.405
 xc_vxc_pw_create                  2198 13.8    1.738    2.478  246.341  246.379
 sum_up_and_integrate              2198 12.8    0.416    0.578  242.116  242.600
 qs_rho_update_rho                 2199 10.0    0.010    0.011  242.155  242.201
 integrate_v_rspace                2198 13.8   11.406   96.045  241.698  242.193
 calculate_rho_elec                2199 11.0   11.440   97.589  242.145  242.191
 mp_alltoall_z22v                 38133 19.5  222.120  233.119  222.120  233.119
 density_rs2pw                     2199 12.0    0.098    0.126  215.107  226.845
 qmmm_elec_with_gaussian:spline     127  8.0    0.001    0.001  195.423  197.721
 pw_prolongate_s3                   381  9.0  139.411  141.016  195.422  197.720
 yz_to_x                          17842 18.0    4.545    5.209  141.944  150.585
 potential_pw2rs                   2198 14.8    0.107    0.131  142.303  144.132
 mp_waitany                      481716 16.2  112.684  135.770  112.684  135.770
 xc_rho_set_and_dset_create        2198 14.8    1.021    1.125  103.345  131.986
 qs_scf_new_mos                    2072 10.0    0.009    0.010  125.158  125.318
 qs_scf_loop_do_ot                 2072 11.0    0.011    0.012  125.150  125.310
 dbcsr_multiply_generic           44342 15.0    1.662    1.772  120.451  122.484
 ot_scf_mini                       2072 12.0    0.055    0.059  119.308  119.406
 rs_pw_transfer_RS2PW_150          2326 13.9   24.662   30.895   97.881  109.732
 mp_alltoall_d11v                 33105 16.1   93.865  103.860   93.865  103.860
 x_to_yz                          20291 19.0   11.851   15.671   96.571   99.871
 rs_distribute_matrix              4523 13.4    0.142    0.532   89.635   99.508
 ot_mini                           2072 13.0    0.010    0.011   82.958   83.154
 qmmm_force_with_gaussian_low       126  8.0    0.000    0.001   80.428   81.114
 mp_waitall_1                   ******* 17.9   71.260   81.074   71.260   81.074
 qmmm_forces_gaussian_low_R         126  9.0    0.000    0.000   78.942   79.514
 qmmm_forces_with_gaussian_LG       126 10.0   78.941   79.514   78.941   79.514
 qs_ot_get_derivative              2072 14.0    0.015    0.016   75.085   75.187
 multiply_cannon                  44342 16.0   10.519   10.941   65.047   70.152
 pw_zero                          44732  9.6   54.251   56.023   54.251   56.023
 rs_pw_transfer_PW2RS_150          2324 16.6   30.022   31.884   50.922   53.946
 xc_functional_eval                2198 15.8    0.014    0.042   26.951   51.882
 pbe_lda_eval                      2198 16.8   26.937   51.873   26.937   51.873
 pw_axpy                          42899 11.2   44.022   45.522   44.022   45.522
 mp_sum_dm3                         637  8.0   43.695   45.087   43.695   45.087
 qs_ot_get_derivative_taylor       1698 15.0    0.051    0.058   44.994   45.074
 qmmm_elec_with_gaussian_low        127  8.0    0.000    0.001   41.155   41.494
 write_restart                      124  5.0    0.090   16.114   24.837   41.182
 qmmm_elec_gaussian_low_R           127  9.0    0.000    0.000   39.511   39.820
 qmmm_elec_with_gaussian_LG         127 10.0   39.511   39.820   39.511   39.820
 rs_pw_transfer_PW2RS_10           4777 16.2    4.978    5.202   33.999   39.642
 init_scf_loop                      127  9.0    0.002    0.003   37.780   37.783
 rs_pw_transfer_PW2RS_40           2198 16.8    6.788    9.484   24.460   37.377
 qs_ks_update_qs_env_forces         126  7.0    0.001    0.001   35.411   35.441
 make_m2s                         88684 16.0    1.479    1.737   33.483   34.681
 rs_pw_transfer_RS2PW_40           2199 14.0    7.889   10.120   26.471   34.327
 -------------------------------------------------------------------------------

 The number of warnings for this run is : 1
 
 -------------------------------------------------------------------------------
  **** **** ******  **  PROGRAM ENDED AT                 2019-06-19 00:31:19.403
 ***** ** ***  *** **   PROGRAM RAN ON                                  nid00059
 **    ****   ******    PROGRAM RAN BY                                    vamodi
 ***** **    ** ** **   PROGRAM PROCESS ID                                 35334
  **** **  *******  **  PROGRAM STOPPED IN /wrk/vamodi/BioExcel-2/Summer_school-
                                           2019/geo-opt/QMMM
Application 8681618 resources: utime ~311257s, stime ~4150s, Rss ~34060, inblocks ~2305935, outblocks ~3091393
