      29
 i =        1, E =      -158.8481994567
  C         6.3697319767        8.0327562944       10.6593359549
  C         7.5460359851        8.7688369942       11.1658373154
  C         8.5513775692        9.3405127066       10.5038998102
  C         8.5301849962        9.4788368440        9.0689382684
  C         9.7384456718        9.8584558344       11.1798864359
  C         9.5756258481       10.0007630647        8.3889112284
  C        10.7950041324       10.3446365339       10.4933454664
  C        10.7864739449       10.3698620893        9.0674658885
  O        11.8980817204       10.6764045488        8.3982142185
  C         4.9333841054        6.9675144124        9.4900448110
  C         5.2398893633        7.8395353320       11.5289412343
  N         6.2289142751        7.4661788726        9.4702612542
  O         4.9744078129        8.2300166686       12.7102668770
  N         4.3367040351        7.2059516197       10.6790884422
  H         7.4547539826        8.9117679291       12.2182263813
  H         7.5921997858        9.2010828025        8.5877401202
  H         9.7239633910        9.8037457951       12.2638085894
  H         9.5365252853        9.9390466410        7.3064264963
  H        11.7073984621       10.6858459662       10.9918590575
  H        12.6643213618       10.8576861517        9.0461076920
  H         4.5018526460        6.4670498013        8.6557062280
  H         3.4171243693        6.9100348242       10.9979992753
  C        15.8701129726       12.7995712889        9.6903239335
  C        14.4802524066       12.2378598157        9.8861609300
  O        14.2512591174       10.9900121761        9.7176151485
  O        13.5936087713       13.0781672878       10.1855909345
  H        15.8629056491       13.5340508011        8.8760018947
  H        16.0985915530       13.3843215007       10.5847645977
  H        16.5836420463       11.9983687247        9.4867760454
      29
 i =        2, E =      -158.8663266704
  C         6.3881554571        8.0445014618       10.6738798422
  C         7.5207886514        8.7555136770       11.1646996690
  C         8.5686466283        9.3496531158       10.4947844391
  C         8.5248103546        9.4761081156        9.0764242679
  C         9.7282451607        9.8539029564       11.1799947176
  C         9.5816411501       10.0023464686        8.3871547975
  C        10.8008332204       10.3472881751       10.4898519405
  C        10.7849850350       10.3683237614        9.0679063091
  O        11.8978427122       10.6769769558        8.4005290609
  C         4.9500903519        6.9731092473        9.4880820702
  C         5.2370680147        7.8435893352       11.5398989351
  N         6.2128864743        7.4576911509        9.4589933853
  O         4.9763031937        8.2268377591       12.7021239925
  N         4.3328245842        7.2056632276       10.6818228015
  H         7.4549351884        8.9124738203       12.2210793355
  H         7.5931808492        9.2008601548        8.5871449034
  H         9.7246241062        9.8038996176       12.2642505562
  H         9.5369449292        9.9400188296        7.3058924015
  H        11.7066020571       10.6857224596       10.9914949569
  H        12.6652019884       10.8577844393        9.0449468126
  H         4.5004403023        6.4653188545        8.6538301554
  H         3.4174954470        6.9101638733       10.9977573594
  C        15.8710602235       12.7996548598        9.6903369989
  C        14.4743873757       12.2376729481        9.8868061609
  O        14.2519237356       10.9901928569        9.7164007867
  O        13.5948317363       13.0780657337       10.1853073619
  H        15.8628512911       13.5336736727        8.8757416533
  H        16.0993130502       13.3839786814       10.5849384686
  H        16.5844636017       11.9985238242        9.4868945067
      29
 i =        3, E =      -158.8746283033
  C         6.4117671738        8.0532617433       10.6927279463
  C         7.4945973399        8.7450509542       11.1582223129
  C         8.5783602504        9.3526213293       10.4870967629
  C         8.5256042709        9.4796214230        9.0837614779
  C         9.7182517569        9.8500681736       11.1758326287
  C         9.5901449541        9.9980399333        8.3854390924
  C        10.8011913429       10.3475207984       10.4880210700
  C        10.7877249483       10.3661763885        9.0691632671
  O        11.8881857992       10.6763477986        8.3980224873
  C         4.9776694954        6.9812465796        9.4830184711
  C         5.2350625647        7.8545047120       11.5530128994
  N         6.1869128200        7.4500226513        9.4434619164
  O         4.9804591546        8.2230453260       12.6956055502
  N         4.3301379286        7.2050252441       10.6848017179
  H         7.4542938022        8.9143040963       12.2328745347
  H         7.5950006351        9.1981421666        8.5846132516
  H         9.7260819946        9.8037424953       12.2673109771
  H         9.5403502163        9.9457836619        7.3018170226
  H        11.7075122287       10.6869098735       10.9917768417
  H        12.6765950077       10.8594060553        9.0471869771
  H         4.4977576483        6.4622300077        8.6522373206
  H         3.4137761602        6.9082544421       10.9969358763
  C        15.8713514367       12.7976228974        9.6907251126
  C        14.4621582268       12.2411490108        9.8861082225
  O        14.2524464283       10.9843478107        9.7111781603
  O        13.5908615062       13.0823729022       10.1880062268
  H        15.8624572331       13.5322869640        8.8730054955
  H        16.1042798555       13.3828313901       10.5876965929
  H        16.5893545421       11.9991479768        9.4876635266
      29
 i =        4, E =      -158.8761181921
  C         6.4104522444        8.0482212303       10.6954340873
  C         7.4934196294        8.7481891243       11.1638240589
  C         8.5791600213        9.3517048332       10.4839783130
  C         8.5257618776        9.4824363465        9.0835183644
  C         9.7146379535        9.8487015960       11.1764676264
  C         9.5953685581        9.9940185850        8.3839080936
  C        10.8011862253       10.3473287273       10.4882789284
  C        10.7883238743       10.3642893558        9.0698846254
  O        11.8853092412       10.6769878416        8.3965445867
  C         4.9759345241        6.9794076338        9.4806437698
  C         5.2357145635        7.8583429872       11.5513976816
  N         6.1897547239        7.4543404082        9.4385603327
  O         4.9819518582        8.2240529161       12.7006173501
  N         4.3308692358        7.2049190540       10.6857699195
  H         7.4535922516        8.9148250993       12.2374841291
  H         7.5979123370        9.1964555589        8.5833556398
  H         9.7269100906        9.8035661461       12.2678606047
  H         9.5433791972        9.9505707067        7.2992195571
  H        11.7073657253       10.6875740478       10.9918672819
  H        12.6841072101       10.8599691893        9.0472589523
  H         4.4972190713        6.4613567830        8.6530107607
  H         3.4115218488        6.9067246569       10.9956170281
  C        15.8705108632       12.7965240558        9.6913101781
  C        14.4560232681       12.2420348335        9.8848566100
  O        14.2510818934       10.9820219595        9.7073565410
  O        13.5864655498       13.0855657509       10.1902146613
  H        15.8622023911       13.5307585988        8.8711485193
  H        16.1082498062       13.3815074447       10.5894458125
  H        16.5929490682       11.9996690034        9.4883627446
      29
 i =        5, E =      -158.8788531438
  C         6.4113606347        8.0338897589       10.7032091875
  C         7.4888218527        8.7587515717       11.1788080273
  C         8.5753072254        9.3460510575       10.4805438485
  C         8.5291611386        9.4925904741        9.0764606279
  C         9.7084902905        9.8461596107       11.1769252861
  C         9.6104930142        9.9771893629        8.3788061418
  C        10.7973676001       10.3444829779       10.4923020520
  C        10.7918851242       10.3565400377        9.0725699117
  O        11.8841313714       10.6821873177        8.3962147631
  C         4.9767773301        6.9787112623        9.4767413960
  C         5.2333307197        7.8715343680       11.5550083844
  N         6.1931833379        7.4695315777        9.4254962578
  O         4.9892608219        8.2259560520       12.7102180714
  N         4.3324791838        7.2033711058       10.6874023299
  H         7.4507995900        8.9177521544       12.2568740482
  H         7.6098635978        9.1898967244        8.5779354036
  H         9.7291716559        9.8024346202       12.2694887046
  H         9.5567556770        9.9702035898        7.2896991275
  H        11.7060851781       10.6902385357       10.9923212606
  H        12.7094226886       10.8604082973        9.0420532367
  H         4.4936464466        6.4563974156        8.6538477585
  H         3.4057786043        6.9016556580       10.9893979882
  C        15.8662455786       12.7928450939        9.6939744591
  C        14.4338215039       12.2441028314        9.8807831102
  O        14.2421634134       10.9782386061        9.6917552150
  O        13.5701620137       13.0954590896       10.1974603157
  H        15.8613076504       13.5232902479        8.8650878396
  H        16.1236216511       13.3749034111       10.5946748393
  H        16.6056934144       12.0025703866        9.4915166581
      29
 i =        6, E =      -158.8804745952
  C         6.4178483357        8.0320536360       10.7104202202
  C         7.4804592042        8.7642997379       11.1879706949
  C         8.5690862820        9.3450970171       10.4812799299
  C         8.5327460865        9.4941757193        9.0752615850
  C         9.7028260800        9.8418763090       11.1793205444
  C         9.6257465404        9.9611425305        8.3684155332
  C        10.7970518240       10.3410173584       10.4944564069
  C        10.8046962112       10.3482112140        9.0756371554
  O        11.8927615859       10.6902892256        8.4031872655
  C         4.9788453770        6.9839856234        9.4751559606
  C         5.2328953814        7.8714509029       11.5478247553
  N         6.1909397452        7.4873197202        9.4268396758
  O         4.9918999326        8.2322747620       12.7254586215
  N         4.3324037249        7.2020933506       10.6899387293
  H         7.4474035823        8.9224866055       12.2768047132
  H         7.6231489124        9.1822264547        8.5672406342
  H         9.7300772208        9.8004837642       12.2694535933
  H         9.5766281936        9.9951202730        7.2817649780
  H        11.7005857095       10.6928842879       10.9930379337
  H        12.7358178698       10.8583661236        9.0303550173
  H         4.4907962381        6.4518782534        8.6568659668
  H         3.4048476769        6.8967172100       10.9784555014
  C        15.8600141679       12.7878563216        9.6976276958
  C        14.4152301965       12.2495145072        9.8793429769
  O        14.2211937661       10.9844545132        9.6685757363
  O        13.5518567521       13.0990637774       10.2036450440
  H        15.8602465577       13.5109838959        8.8613214484
  H        16.1403174440       13.3639483046       10.5967885445
  H        16.6149420209       12.0088228106        9.4965205082
      29
 i =        7, E =      -158.8823602618
  C         6.4161475169        8.0323251697       10.7143211472
  C         7.4788498497        8.7710190355       11.1985779922
  C         8.5637303791        9.3462155240       10.4836477107
  C         8.5392739529        9.4926160188        9.0716799060
  C         9.7008214714        9.8391200536       11.1794575221
  C         9.6377576572        9.9490590239        8.3657277127
  C        10.7954721976       10.3360144019       10.4964866470
  C        10.8162180150       10.3409801773        9.0759811086
  O        11.9011999348       10.6969244403        8.4079543332
  C         4.9787867987        6.9901208204        9.4746278165
  C         5.2297001281        7.8728318777       11.5596150158
  N         6.1898905409        7.5013389271        9.4303131191
  O         4.9950830696        8.2324378716       12.7234584379
  N         4.3350158278        7.2013865320       10.6901121623
  H         7.4441544843        8.9263756061       12.2889699903
  H         7.6342056195        9.1756479679        8.5567281890
  H         9.7299760707        9.7985295332       12.2700518438
  H         9.5950824601       10.0167162985        7.2745534195
  H        11.6956156690       10.6954502411       10.9948726067
  H        12.7600942689       10.8566119162        9.0214527752
  H         4.4900014146        6.4495441660        8.6610402116
  H         3.4043631098        6.8924628064       10.9689568453
  C        15.8545650847       12.7834925532        9.7012726870
  C        14.4013905232       12.2543256612        9.8786766221
  O        14.1996611029       10.9926685372        9.6456554525
  O        13.5367065555       13.1001491156       10.2082376357
  H        15.8591258266       13.4994384119        8.8593945866
  H        16.1535768996       13.3539045496       10.5973592651
  H        16.6199101271       12.0141950121        9.5011369395
      29
 i =        8, E =      -158.8838956257
  C         6.4099655190        8.0447232121       10.7253158989
  C         7.4761344647        8.7801640309       11.2129864812
  C         8.5550292295        9.3520826868       10.4901262102
  C         8.5543452867        9.4818247849        9.0638544786
  C         9.7014923499        9.8353908091       11.1782791371
  C         9.6591846926        9.9317290687        8.3641589521
  C        10.7942763579       10.3240650193       10.4984743935
  C        10.8391920224       10.3279279193        9.0755995341
  O        11.9194964404       10.7091435752        8.4148033581
  C         4.9804728681        7.0075275339        9.4774912687
  C         5.2280426996        7.8668712324       11.5751635701
  N         6.1852127606        7.5218819599        9.4415695819
  O         4.9947505771        8.2329284634       12.7221537543
  N         4.3375402615        7.1996262469       10.6914148490
  H         7.4381316177        8.9342829087       12.3053684434
  H         7.6551463862        9.1638369605        8.5349021107
  H         9.7279385828        9.7945505740       12.2711544492
  H         9.6321773026       10.0563899495        7.2659684867
  H        11.6850540046       10.7003576914       11.0006768230
  H        12.8080679402       10.8536617520        9.0073330188
  H         4.4913279074        6.4478776050        8.6708049216
  H         3.4064313372        6.8850023079       10.9495716439
  C        15.8439909518       12.7751970455        9.7091748665
  C        14.3783023380       12.2632028734        9.8779750735
  O        14.1454639680       11.0166593147        9.5964419255
  O        13.5119813408       13.0981926485       10.2142589659
  H        15.8564380696       13.4764234122        8.8585079564
  H        16.1753816111       13.3346458542       10.5963636092
  H        16.6227078245       12.0227995704        9.5101060505
      29
 i =        9, E =      -158.8853395960
  C         6.4064071600        8.0540004162       10.7255050175
  C         7.4788059373        8.7777286813       11.2049619524
  C         8.5592349785        9.3528764892       10.4873454576
  C         8.5562301704        9.4749174181        9.0630838303
  C         9.7055302930        9.8379013116       11.1781761161
  C         9.6554396273        9.9423149276        8.3670197797
  C        10.8002992478       10.3230516782       10.4961274730
  C        10.8369426758       10.3317741628        9.0737507639
  O        11.9144308875       10.7062187363        8.4104843696
  C         4.9797211339        7.0090012599        9.4802682379
  C         5.2290678356        7.8633998745       11.5737611626
  N         6.1862334410        7.5133918878        9.4416838706
  O         4.9884668276        8.2296437984       12.7217585588
  N         4.3374539472        7.1995542963       10.6918651621
  H         7.4396299250        8.9341135172       12.2942963898
  H         7.6534128902        9.1661618510        8.5361782701
  H         9.7260397145        9.7952864186       12.2704858073
  H         9.6294503985       10.0474949831        7.2770751115
  H        11.6856058573       10.6995207235       11.0036725226
  H        12.8071129846       10.8572646926        9.0161339491
  H         4.4960133539        6.4530691771        8.6722881818
  H         3.4064028510        6.8858351085       10.9522963443
  C        15.8443812368       12.7750178054        9.7094700003
  C        14.3820093454       12.2610889437        9.8758120565
  O        14.1582984597       11.0165922704        9.5994827295
  O        13.5205954662       13.0980971250       10.2131261868
  H        15.8554599867       13.4793253607        8.8616086146
  H        16.1670599974       13.3388102858       10.5957791732
  H        16.6136133511       12.0159694004        9.5085319340
      29
 i =       10, E =      -158.8864879979
  C         6.3979189238        8.0672020397       10.7225600336
  C         7.4826084167        8.7804862060       11.1972811721
  C         8.5695237806        9.3538259246       10.4794460225
  C         8.5656585153        9.4618344552        9.0620428081
  C         9.7095196065        9.8393897570       11.1747087175
  C         9.6559983781        9.9535944996        8.3775787417
  C        10.8105771070       10.3168655159       10.4938357489
  C        10.8391055184       10.3354380426        9.0739141941
  O        11.9193338145       10.7057039383        8.4057921682
  C         4.9784812619        7.0134058291        9.4832076618
  C         5.2294829686        7.8599466601       11.5720520685
  N         6.1907039638        7.5107301636        9.4472745058
  O         4.9768200558        8.2234746345       12.7292254284
  N         4.3359788511        7.1985345197       10.6965941758
  H         7.4416624291        8.9377066450       12.2793564610
  H         7.6584407779        9.1651265795        8.5305445704
  H         9.7222933307        9.7963337394       12.2697180242
  H         9.6369217549       10.0446631614        7.2891005564
  H        11.6862948823       10.6999850988       11.0128422050
  H        12.8208093539       10.8638549334        9.0269649243
  H         4.5050236808        6.4623497510        8.6774238816
  H         3.4062239928        6.8846434797       10.9514465248
  C        15.8396436174       12.7716243956        9.7115315473
  C        14.3876014066       12.2676022024        9.8715829413
  O        14.1583714684       11.0138048995        9.5882659799
  O        13.5242070766       13.1017535422       10.2143193799
  H        15.8522368244       13.4775568361        8.8668633408
  H        16.1575528242       13.3413863454       10.5967888174
  H        16.5968966287       12.0019066258        9.5083730303
      29
 i =       11, E =      -158.8878863843
  C         6.3941206187        8.0836545028       10.7261639965
  C         7.4829128656        8.7870194028       11.1897897833
  C         8.5747834935        9.3515143032       10.4748883472
  C         8.5769289383        9.4474744660        9.0574538964
  C         9.7140605344        9.8390312035       11.1726638261
  C         9.6668275569        9.9583048021        8.3812202302
  C        10.8218682371       10.3079732958       10.4951517435
  C        10.8548699875       10.3369930640        9.0744622576
  O        11.9268481792       10.7087269577        8.4062072136
  C         4.9812268823        7.0235726788        9.4891854283
  C         5.2256690447        7.8597387079       11.5782077982
  N         6.1908208059        7.5162141934        9.4521005121
  O         4.9666103144        8.2150458667       12.7382525110
  N         4.3377041188        7.1968383116       10.7003466929
  H         7.4426209293        8.9456207289       12.2731354093
  H         7.6737136429        9.1593092582        8.5183340180
  H         9.7179647295        9.7968173010       12.2671992504
  H         9.6570946523       10.0551277169        7.2994573627
  H        11.6846094531       10.7015997197       11.0244568573
  H        12.8534030845       10.8707375751        9.0340128573
  H         4.5131654652        6.4696926446        8.6828722812
  H         3.4039529458        6.8801291055       10.9454908804
  C        15.8328869172       12.7655315972        9.7164551986
  C        14.3775554686       12.2711651461        9.8655727556
  O        14.1435857489       11.0244953043        9.5586815990
  O        13.5216268992       13.1064566799       10.2177947761
  H        15.8478756221       13.4687642205        8.8708888624
  H        16.1543695367       13.3376507753       10.5985466329
  H        16.5800364166       11.9880794028        9.5113313809
      29
 i =       12, E =      -158.8893524386
  C         6.3866777434        8.1061072532       10.7328143228
  C         7.4833260136        8.8004279148       11.1827528623
  C         8.5826373030        9.3458711756       10.4678140543
  C         8.5987027052        9.4287452249        9.0484163724
  C         9.7206406994        9.8367048885       11.1686019947
  C         9.6874818219        9.9615213570        8.3877605355
  C        10.8388503594       10.2941518472       10.4994478456
  C        10.8804106997       10.3375086376        9.0767528295
  O        11.9413291155       10.7160553477        8.4089873739
  C         4.9851260189        7.0379079531        9.4968089892
  C         5.2198110107        7.8625445445       11.5888720807
  N         6.1915253253        7.5304527819        9.4591223450
  O         4.9504729394        8.2001962630       12.7545822294
  N         4.3387722836        7.1937950319       10.7079315932
  H         7.4443460962        8.9600564051       12.2656309438
  H         7.7006314512        9.1475893783        8.4967777260
  H         9.7112710437        9.7978350988       12.2629298016
  H         9.6924353911       10.0760106386        7.3116859072
  H        11.6826602719       10.7043474208       11.0440271494
  H        12.9118288950       10.8824974324        9.0439896852
  H         4.5253750385        6.4805273402        8.6912348932
  H         3.4013430027        6.8726094248       10.9344878907
  C        15.8211882695       12.7545992570        9.7246507156
  C        14.3575851671       12.2796077948        9.8560727702
  O        14.1183663698       11.0422108194        9.5006559186
  O        13.5149328665       13.1148389219       10.2242024260
  H        15.8408284579       13.4530391144        8.8762090043
  H        16.1508899033       13.3294479723       10.6020803608
  H        16.5537614064       11.9656642523        9.5170996328
      29
 i =       13, E =      -158.8909258416
  C         6.3781266105        8.1231913968       10.7378905132
  C         7.4844710990        8.8147887777       11.1778733340
  C         8.5944369224        9.3355291588       10.4587119165
  C         8.6207976792        9.4189021996        9.0385232305
  C         9.7283178981        9.8312094489       11.1627159041
  C         9.7103348308        9.9634737323        8.3942873417
  C        10.8539102228       10.2853218720       10.5081164381
  C        10.9034330926       10.3394410409        9.0822214821
  O        11.9437164021       10.7245714814        8.4125568606
  C         4.9880982698        7.0447207066        9.5041881327
  C         5.2111031410        7.8715590358       11.6030416317
  N         6.1904116265        7.5499021334        9.4653829106
  O         4.9307674760        8.1826873188       12.7648333662
  N         4.3420084010        7.1918762032       10.7136606798
  H         7.4499090173        8.9783269306       12.2563013994
  H         7.7296160801        9.1345301294        8.4774763678
  H         9.7047558980        9.8011603923       12.2576064687
  H         9.7238401244       10.0919155667        7.3200708159
  H        11.6864108978       10.7051978031       11.0663381679
  H        12.9762351145       10.9009091718        9.0597664620
  H         4.5358527572        6.4904139724        8.6941002161
  H         3.3989814552        6.8664573567       10.9283734151
  C        15.8084572871       12.7426651642        9.7306545198
  C        14.3467290393       12.2898011905        9.8435643707
  O        14.0882203955       11.0676086588        9.4551599815
  O        13.5078706519       13.1239164249       10.2319141202
  H        15.8345439648       13.4401695393        8.8808752470
  H        16.1401981041       13.3215208655       10.6068204838
  H        16.5231642317       11.9367231121        9.5227138800
      29
 i =       14, E =      -158.8917679054
  C         6.3774962412        8.1286836671       10.7424639998
  C         7.4841721685        8.8217373674       11.1752708795
  C         8.5978225098        9.3272584581       10.4563728280
  C         8.6301438898        9.4200645589        9.0331335650
  C         9.7319565524        9.8261849496       11.1609487314
  C         9.7219469183        9.9598730522        8.3943585475
  C        10.8595264478       10.2846307321       10.5158043320
  C        10.9125762570       10.3396410293        9.0877641686
  O        11.9435194939       10.7307231509        8.4151826261
  C         4.9917983687        7.0454522582        9.5067450697
  C         5.2067439721        7.8776286837       11.6046353616
  N         6.1862665947        7.5641928938        9.4672545149
  O         4.9194265186        8.1743886813       12.7745246910
  N         4.3412952583        7.1903082794       10.7159065038
  H         7.4544248476        8.9899380495       12.2562925842
  H         7.7456367181        9.1267566120        8.4688576624
  H         9.7021944789        9.8036200508       12.2540704175
  H         9.7382804858       10.0999080625        7.3192153018
  H        11.6903154847       10.7044493558       11.0772753345
  H        13.0086863893       10.9131813706        9.0669402398
  H         4.5380656618        6.4925590935        8.6916515559
  H         3.3998510616        6.8644973738       10.9268684571
  C        15.8035906277       12.7367923636        9.7318980960
  C        14.3359580356       12.3020619045        9.8409024806
  O        14.0741294164       11.0800384698        9.4344832836
  O        13.5067749492       13.1256719297       10.2350949913
  H        15.8326342236       13.4340563683        8.8818208281
  H        16.1334722270       13.3154071310       10.6092864473
  H        16.5086166814       11.9220684924        9.5261330582
      29
 i =       15, E =      -158.8930122436
  C         6.3818316054        8.1168768433       10.7434706766
  C         7.4855509285        8.8222994340       11.1769947049
  C         8.5982773923        9.3158658271       10.4577223212
  C         8.6263628047        9.4412531758        9.0326898593
  C         9.7331364371        9.8181286927       11.1619090334
  C         9.7206247213        9.9509028426        8.3888593161
  C        10.8540132279       10.2985854682       10.5275994942
  C        10.9017555488       10.3416572789        9.0961384053
  O        11.9293085959       10.7344796240        8.4170759050
  C         4.9937448984        7.0301828698        9.5023663782
  C         5.2015655673        7.8883436262       11.6015669133
  N         6.1780604788        7.5783295680        9.4629499796
  O         4.9132211692        8.1663624504       12.7743770160
  N         4.3395502281        7.1903651201       10.7120539185
  H         7.4638377979        8.9998095182       12.2603783521
  H         7.7492132628        9.1232061944        8.4743581873
  H         9.7035116380        9.8082113523       12.2514881745
  H         9.7289158735       10.0902080502        7.3056275471
  H        11.7023804710       10.6991044940       11.0806234375
  H        13.0070897866       10.9290737326        9.0723962954
  H         4.5307850035        6.4870343516        8.6772579279
  H         3.4043255725        6.8689695325       10.9381707351
  C        15.8064116855       12.7372681799        9.7249177469
  C        14.3399402276       12.3135975906        9.8441967516
  O        14.0908518988       11.0877373604        9.4551121956
  O        13.5096883226       13.1276545203       10.2373206544
  H        15.8369501464       13.4395586076        8.8785215597
  H        16.1188699600       13.3119510098       10.6105120502
  H        16.5024846310       11.9120606386        9.5267698878
      29
 i =       16, E =      -158.8933459088
  C         6.3749412645        8.1269719390       10.7502471067
  C         7.4862954788        8.8253628404       11.1809812334
  C         8.6068526990        9.3134798345       10.4513561666
  C         8.6298241746        9.4388077661        9.0340711376
  C         9.7346532998        9.8105467334       11.1638656933
  C         9.7296042065        9.9485760066        8.3848395202
  C        10.8584960325       10.3021763932       10.5324595308
  C        10.9033812010       10.3437152748        9.1008954735
  O        11.9366492768       10.7426028430        8.4221923189
  C         4.9913158217        7.0286348008        9.4998945012
  C         5.1959970450        7.8879259956       11.6006102139
  N         6.1734191394        7.5928830485        9.4627552363
  O         4.8996023781        8.1513591510       12.7817466189
  N         4.3432539870        7.1898749578       10.7107665188