 DBCSR| Multiplication driver                                               XSMM
 DBCSR| Multrec recursion limit                                              512
 DBCSR| Multiplication stack size                                           1000
 DBCSR| Maximum elements for images                                    UNLIMITED
 DBCSR| Multiplicative factor virtual images                                   1
 DBCSR| Multiplication size stacks                                             3
 DBCSR| Number of 3D layers                                               SINGLE
 DBCSR| Use MPI memory allocation                                              T
 DBCSR| Use RMA algorithm                                                      F
 DBCSR| Use Communication thread                                               T
 DBCSR| Communication thread load                                             87


  **** **** ******  **  PROGRAM STARTED AT               2019-06-18 21:01:48.813
 ***** ** ***  *** **   PROGRAM STARTED ON                              nid03773
 **    ****   ******    PROGRAM STARTED BY                                vamodi
 ***** **    ** ** **   PROGRAM PROCESS ID                                 41513
  **** **  *******  **  PROGRAM STARTED IN   /fs3/d118/d118/vamodi/neb-vacuum/tt

 CP2K| version string:                    CP2K version 5.0 (Development Version)
 CP2K| source code revision number:                                    svn:17657
 CP2K| cp2kflags: libint fftw3 libxc elpa2 parallel mpi3 scalapack libxsmm libgr
 CP2K|            id has_no_shared_glibc max_contr=4 statm_resident plumed2
 CP2K| is freely available from                            https://www.cp2k.org/
 CP2K| Program compiled at                          Thu Jan  5 14:26:40 GMT 2017
 CP2K| Program compiled on                                            eslogin001
 CP2K| Program compiled for                                               ARCHER
 CP2K| Data directory path                     /work/y07/y07/cp2k/5.0.17657/data
 CP2K| Input file name                                                 input.inp

 GLOBAL| Force Environment number                                              1
 GLOBAL| Basis set file name                                        BASIS_MOLOPT
 GLOBAL| Potential file name                                           POTENTIAL
 GLOBAL| MM Potential file name                                     MM_POTENTIAL
 GLOBAL| Coordinate file name                                    init_vacuum.xyz
 GLOBAL| Method name                                                        CP2K
 GLOBAL| Project name                                                 GEO_OPT-QS
 GLOBAL| Preferred FFT library                                             FFTW3
 GLOBAL| Preferred diagonalization lib.                                       SL
 GLOBAL| Run type                                                        GEO_OPT
 GLOBAL| All-to-all communication in single precision                          F
 GLOBAL| FFTs using library dependent lengths                                  F
 GLOBAL| Global print level                                                  LOW
 GLOBAL| Total number of message passing processes                           192
 GLOBAL| Number of threads for this process                                    1
 GLOBAL| This output is from process                                           0
 GLOBAL| CPU model name :  Intel(R) Xeon(R) CPU E5-2697 v2 @ 2.70GHz

 MEMORY| system memory details [Kb]
 MEMORY|                        rank 0           min           max       average
 MEMORY| MemTotal             66072152      66072152      66072152      66072152
 MEMORY| MemFree              61768788      61725392      61836772      61773701
 MEMORY| Buffers                     0             0             0             0
 MEMORY| Cached                 232376        231768        233416        232605
 MEMORY| Slab                   263168        261364        269616        264010
 MEMORY| SReclaimable             8244          7944          8244          8086
 MEMORY| MemLikelyFree        62009408      61965152      62077172      62014393


 GENERATE|  Preliminary Number of Bonds generated:                             0
 GENERATE|  Achieved consistency in connectivity generation.

 *******************************************************************************
 *******************************************************************************
 **                                                                           **
 **     #####                         ##              ##                      **
 **    ##   ##            ##          ##              ##                      **
 **   ##     ##                       ##            ######                    **
 **   ##     ##  ##   ##  ##   #####  ##  ##   ####   ##    #####    #####    **
 **   ##     ##  ##   ##  ##  ##      ## ##   ##      ##   ##   ##  ##   ##   **
 **   ##  ## ##  ##   ##  ##  ##      ####     ###    ##   ######   ######    **
 **    ##  ###   ##   ##  ##  ##      ## ##      ##   ##   ##       ##        **
 **     #######   #####   ##   #####  ##  ##  ####    ##    #####   ##        **
 **           ##                                                    ##        **
 **                                                                           **
 **                                                ... make the atoms dance   **
 **                                                                           **
 **            Copyright (C) by CP2K developers group (2000 - 2017)           **
 **                                                                           **
 *******************************************************************************


 SCF PARAMETERS         Density guess:                                   RESTART
                        --------------------------------------------------------
                        max_scf:                                             300
                        max_scf_history:                                       0
                        max_diis:                                              4
                        --------------------------------------------------------
                        eps_scf:                                        1.00E-06
                        eps_scf_history:                                0.00E+00
                        eps_diis:                                       1.00E-01
                        eps_eigval:                                     1.00E-05
                        --------------------------------------------------------
                        level_shift [a.u.]:                                 0.00
                        --------------------------------------------------------
                        No outer SCF

 *******************************************************************************
 ***                     STARTING GEOMETRY OPTIMIZATION                      ***
 ***                                 L-BFGS                                  ***
 *******************************************************************************

 --------------------------
 OPTIMIZATION STEP:      1
 --------------------------

 Number of electrons:                                                         94
 Number of occupied orbitals:                                                 47
 Number of molecular orbitals:                                                47

 Number of orbital functions:                                                289
 Number of independent orbital functions:                                    289

 Extrapolation method: initial_guess

 *** WARNING in qs_initial_guess.F:261 :: User requested to restart the   ***
 *** wavefunction from the file named: GEO_OPT-QS-RESTART.wfn. This file  ***
 *** does not exist. Please check the existence of the file or change     ***
 *** properly the value of the keyword WFN_RESTART_FILE_NAME. Calculation ***
 *** continues using ATOMIC GUESS.                                        ***



 SCF WAVEFUNCTION OPTIMIZATION

  ----------------------------------- OT ---------------------------------------
  Minimizer      : DIIS                : direct inversion
                                         in the iterative subspace
                                         using   7 DIIS vectors
                                         safer DIIS on
  Preconditioner : FULL_SINGLE_INVERSE : inversion of 
                                         H + eS - 2*(Sc)(c^T*H*c+const)(Sc)^T
  Precond_solver : DEFAULT
  stepsize       :    0.15000000                  energy_gap     :    0.08000000
  eps_taylor     :   0.10000E-15                  max_taylor     :             4
  ----------------------------------- OT ---------------------------------------

  Step     Update method      Time    Convergence         Total energy    Change
  ------------------------------------------------------------------------------
     1 OT DIIS     0.15E+00    1.1     0.07422324      -148.7864134158 -1.49E+02
     2 OT DIIS     0.15E+00    0.7     0.07914859      -153.0691336070 -4.28E+00
     3 OT DIIS     0.15E+00    0.8     0.05126465      -155.6045840218 -2.54E+00
     4 OT DIIS     0.15E+00    0.8     0.02789615      -157.2461556790 -1.64E+00
     5 OT DIIS     0.15E+00    0.8     0.02163663      -158.0022237446 -7.56E-01
     6 OT DIIS     0.15E+00    0.7     0.01527420      -158.2709285847 -2.69E-01
     7 OT DIIS     0.15E+00    0.7     0.00869517      -158.4222630163 -1.51E-01
     8 OT DIIS     0.15E+00    0.7     0.00647299      -158.5133213407 -9.11E-02
     9 OT DIIS     0.15E+00    0.8     0.00524921      -158.5745721270 -6.13E-02
    10 OT DIIS     0.15E+00    0.8     0.00353646      -158.6122066265 -3.76E-02
    11 OT DIIS     0.15E+00    0.7     0.00270145      -158.6399570615 -2.78E-02
    12 OT DIIS     0.15E+00    0.7     0.00223638      -158.6548275021 -1.49E-02
    13 OT DIIS     0.15E+00    0.7     0.00173036      -158.6673320900 -1.25E-02
    14 OT DIIS     0.15E+00    0.7     0.00158358      -158.6751098841 -7.78E-03
    15 OT DIIS     0.15E+00    0.7     0.00130960      -158.6798411612 -4.73E-03
    16 OT DIIS     0.15E+00    0.7     0.00103756      -158.6834823410 -3.64E-03
    17 OT DIIS     0.15E+00    0.7     0.00088679      -158.6868591834 -3.38E-03
    18 OT DIIS     0.15E+00    0.7     0.00082685      -158.6883699449 -1.51E-03
    19 OT DIIS     0.15E+00    0.8     0.00068241      -158.6903702568 -2.00E-03
    20 OT DIIS     0.15E+00    0.8     0.00062575      -158.6915600886 -1.19E-03
    21 OT DIIS     0.15E+00    0.8     0.00056180      -158.6927493324 -1.19E-03
    22 OT DIIS     0.15E+00    0.9     0.00053513      -158.6937352791 -9.86E-04
    23 OT DIIS     0.15E+00    1.0     0.00050575      -158.6945944315 -8.59E-04
    24 OT DIIS     0.15E+00    0.9     0.00044944      -158.6955205545 -9.26E-04
    25 OT DIIS     0.15E+00    0.9     0.00042007      -158.6964593653 -9.39E-04
    26 OT DIIS     0.15E+00    0.7     0.00039863      -158.6972335271 -7.74E-04
    27 OT DIIS     0.15E+00    0.7     0.00035841      -158.6978372921 -6.04E-04
    28 OT DIIS     0.15E+00    0.7     0.00034047      -158.6984402845 -6.03E-04
    29 OT DIIS     0.15E+00    0.8     0.00031388      -158.6990364774 -5.96E-04
    30 OT DIIS     0.15E+00    0.7     0.00028751      -158.6994103812 -3.74E-04
    31 OT DIIS     0.15E+00    0.7     0.00027383      -158.6997594571 -3.49E-04
    32 OT DIIS     0.15E+00    1.8     0.00024802      -158.7000320095 -2.73E-04
    33 OT DIIS     0.15E+00    1.2     0.00022946      -158.7002878300 -2.56E-04
    34 OT DIIS     0.15E+00    0.9     0.00022803      -158.7005256309 -2.38E-04
    35 OT DIIS     0.15E+00    0.7     0.00021344      -158.7006405567 -1.15E-04
    36 OT DIIS     0.15E+00    0.7     0.00020729      -158.7007780002 -1.37E-04
    37 OT DIIS     0.15E+00    0.8     0.00020337      -158.7008609770 -8.30E-05
    38 OT DIIS     0.15E+00    0.7     0.00020243      -158.7009222763 -6.13E-05
    39 OT SD       0.15E+00    0.7     0.00020208      -158.7009412606 -1.90E-05
    40 OT SD       0.15E+00    0.7     0.00020411      -158.7010246703 -8.34E-05
    41 OT SD       0.15E+00    0.7     0.00020768      -158.7011096612 -8.50E-05
    42 OT SD       0.15E+00    0.7     0.00021446      -158.7011966961 -8.70E-05
    43 OT SD       0.15E+00    0.8     0.00023092      -158.7012853793 -8.87E-05
    44 OT SD       0.15E+00    0.8     0.00027809      -158.7013721694 -8.68E-05
    45 OT SD       0.15E+00    0.7     0.00040857      -158.7014410691 -6.89E-05
    46 OT SD       0.15E+00    0.7     0.00072115      -158.7014258044  1.53E-05
    47 OT SD       0.15E+00    0.8     0.00139770      -158.7010535346  3.72E-04
    48 OT DIIS     0.15E+00    0.7     0.00280104      -158.6991860547  1.87E-03
    49 OT DIIS     0.15E+00    0.7     0.00028076      -158.7001538883 -9.68E-04
    50 OT SD       0.15E+00    0.7     0.00019421      -158.7001947229 -4.08E-05
    51 OT SD       0.15E+00    0.7     0.00018828      -158.7002457255 -5.10E-05
    52 OT SD       0.15E+00    0.8     0.00023343      -158.7002814021 -3.57E-05
    53 OT SD       0.15E+00    0.7     0.00038294      -158.7002913138 -9.91E-06
    54 OT DIIS     0.15E+00    0.7     0.00079856      -158.7001800185  1.11E-04
    55 OT DIIS     0.15E+00    0.8     0.00013130      -158.7004318023 -2.52E-04
    56 OT DIIS     0.15E+00    0.7     0.00012176      -158.7004961523 -6.44E-05
    57 OT DIIS     0.15E+00    0.7     0.00012265      -158.7005337131 -3.76E-05
    58 OT DIIS     0.15E+00    0.8     0.00011223      -158.7005650877 -3.14E-05
    59 OT DIIS     0.15E+00    0.7     0.00011236      -158.7005911017 -2.60E-05
    60 OT SD       0.15E+00    0.8     0.00011170      -158.7006091026 -1.80E-05
    61 OT SD       0.15E+00    0.7     0.00011383      -158.7006346066 -2.55E-05
    62 OT SD       0.15E+00    0.7     0.00011773      -158.7006608658 -2.63E-05
    63 OT SD       0.15E+00    0.7     0.00012889      -158.7006876329 -2.68E-05
    64 OT SD       0.15E+00    0.9     0.00017182      -158.7007126010 -2.50E-05
    65 OT SD       0.15E+00    0.7     0.00031902      -158.7007214079 -8.81E-06
    66 OT SD       0.15E+00    0.8     0.00072541      -158.7006273300  9.41E-05
    67 OT DIIS     0.15E+00    0.7     0.00176249      -158.6999074904  7.20E-04
    68 OT DIIS     0.15E+00    0.7     0.00010920      -158.7003506068 -4.43E-04
    69 OT SD       0.15E+00    0.8     0.00009132      -158.7003519379 -1.33E-06
    70 OT SD       0.15E+00    0.7     0.00010144      -158.7003643647 -1.24E-05
    71 OT SD       0.15E+00    0.7     0.00016781      -158.7003708190 -6.45E-06
    72 OT DIIS     0.15E+00    0.7     0.00036992      -158.7003499600  2.09E-05
    73 OT DIIS     0.15E+00    0.8     0.00007185      -158.7003618578 -1.19E-05
    74 OT DIIS     0.15E+00    0.7     0.00006953      -158.7003984541 -3.66E-05
    75 OT DIIS     0.15E+00    0.7     0.00006035      -158.7004063644 -7.91E-06
    76 OT DIIS     0.15E+00    0.8     0.00005483      -158.7004213295 -1.50E-05
    77 OT DIIS     0.15E+00    0.7     0.00004786      -158.7004487779 -2.74E-05
    78 OT DIIS     0.15E+00    0.7     0.00004366      -158.7004739781 -2.52E-05
    79 OT DIIS     0.15E+00    0.7     0.00004397      -158.7004907161 -1.67E-05
    80 OT DIIS     0.15E+00    0.7     0.00002951      -158.7005139352 -2.32E-05
    81 OT DIIS     0.15E+00    0.8     0.00003122      -158.7005184494 -4.51E-06
    82 OT DIIS     0.15E+00    0.9     0.00002535      -158.7005238019 -5.35E-06
    83 OT DIIS     0.15E+00    1.0     0.00002163      -158.7005255771 -1.78E-06
    84 OT DIIS     0.15E+00    1.0     0.00002122      -158.7005279217 -2.34E-06
    85 OT DIIS     0.15E+00    0.9     0.00001809      -158.7005302153 -2.29E-06
    86 OT DIIS     0.15E+00    0.8     0.00001701      -158.7005318165 -1.60E-06
    87 OT DIIS     0.15E+00    0.8     0.00001713      -158.7005328080 -9.91E-07
    88 OT DIIS     0.15E+00    0.8     0.00001537      -158.7005340736 -1.27E-06
    89 OT DIIS     0.15E+00    0.7     0.00001533      -158.7005351384 -1.06E-06
    90 OT DIIS     0.15E+00    0.7     0.00001481      -158.7005360879 -9.49E-07
    91 OT DIIS     0.15E+00    0.8     0.00001453      -158.7005366236 -5.36E-07
    92 OT DIIS     0.15E+00    1.6     0.00001428      -158.7005373049 -6.81E-07
    93 OT DIIS     0.15E+00    1.1     0.00001408      -158.7005377785 -4.74E-07
    94 OT DIIS     0.15E+00    0.9     0.00001405      -158.7005380616 -2.83E-07
    95 OT SD       0.15E+00    0.8     0.00001405      -158.7005381656 -1.04E-07
    96 OT SD       0.15E+00    0.7     0.00001418      -158.7005385675 -4.02E-07
    97 OT SD       0.15E+00    0.8     0.00001450      -158.7005389738 -4.06E-07
    98 OT SD       0.15E+00    0.7     0.00001552      -158.7005393819 -4.08E-07
    99 OT SD       0.15E+00    0.7     0.00001913      -158.7005397708 -3.89E-07
   100 OT SD       0.15E+00    0.7     0.00003059      -158.7005400311 -2.60E-07
   101 OT SD       0.15E+00    0.7     0.00006057      -158.7005396231  4.08E-07
   102 OT DIIS     0.15E+00    0.8     0.00013099      -158.7005358521  3.77E-06
   103 OT DIIS     0.15E+00    0.7     0.00000898      -158.7005367454 -8.93E-07
   104 OT DIIS     0.15E+00    0.8     0.00000788      -158.7005369870 -2.42E-07
   105 OT DIIS     0.15E+00    0.7     0.00000752      -158.7005372181 -2.31E-07
   106 OT DIIS     0.15E+00    0.7     0.00000721      -158.7005375374 -3.19E-07
   107 OT DIIS     0.15E+00    0.7     0.00000559      -158.7005378907 -3.53E-07
   108 OT DIIS     0.15E+00    0.7     0.00000525      -158.7005380038 -1.13E-07
   109 OT DIIS     0.15E+00    0.8     0.00000500      -158.7005382187 -2.15E-07
   110 OT DIIS     0.15E+00    0.8     0.00000471      -158.7005383605 -1.42E-07
   111 OT DIIS     0.15E+00    0.7     0.00000448      -158.7005384901 -1.30E-07
   112 OT DIIS     0.15E+00    0.7     0.00000440      -158.7005385644 -7.43E-08
   113 OT DIIS     0.15E+00    0.8     0.00000424      -158.7005386530 -8.86E-08
   114 OT DIIS     0.15E+00    0.7     0.00000404      -158.7005387172 -6.42E-08
   115 OT DIIS     0.15E+00    0.7     0.00000383      -158.7005387483 -3.11E-08
   116 OT SD       0.15E+00    0.8     0.00000382      -158.7005387895 -4.12E-08
   117 OT DIIS     0.15E+00    0.7     0.00000420      -158.7005388159 -2.64E-08
   118 OT DIIS     0.15E+00    0.8     0.00000363      -158.7005388440 -2.81E-08
   119 OT DIIS     0.15E+00    0.7     0.00000358      -158.7005389030 -5.90E-08
   120 OT DIIS     0.15E+00    0.7     0.00000356      -158.7005389228 -1.98E-08
   121 OT SD       0.15E+00    0.7     0.00000356      -158.7005389282 -5.42E-09
   122 OT SD       0.15E+00    0.7     0.00000364      -158.7005389539 -2.57E-08
   123 OT SD       0.15E+00    0.8     0.00000386      -158.7005389800 -2.61E-08
   124 OT SD       0.15E+00    0.8     0.00000465      -158.7005390054 -2.54E-08
   125 OT SD       0.15E+00    0.7     0.00000740      -158.7005390239 -1.84E-08
   126 OT SD       0.15E+00    0.7     0.00001523      -158.7005389998  2.40E-08
   127 OT DIIS     0.15E+00    0.7     0.00003501      -158.7005387322  2.68E-07
   128 OT DIIS     0.15E+00    0.8     0.00000273      -158.7005386708  6.14E-08
   129 OT DIIS     0.15E+00    0.8     0.00000262      -158.7005386786 -7.84E-09
   130 OT DIIS     0.15E+00    0.7     0.00000256      -158.7005386940 -1.54E-08
   131 OT DIIS     0.15E+00    0.7     0.00000242      -158.7005387601 -6.60E-08
   132 OT DIIS     0.15E+00    0.8     0.00000213      -158.7005388125 -5.24E-08
   133 OT DIIS     0.15E+00    0.7     0.00000183      -158.7005388972 -8.47E-08
   134 OT DIIS     0.15E+00    0.8     0.00000186      -158.7005389425 -4.54E-08
   135 OT DIIS     0.15E+00    0.8     0.00000143      -158.7005389634 -2.08E-08
   136 OT DIIS     0.15E+00    0.8     0.00000118      -158.7005389785 -1.51E-08
   137 OT DIIS     0.15E+00    0.8     0.00000114      -158.7005389829 -4.41E-09
   138 OT DIIS     0.15E+00    0.7     0.00000100      -158.7005389867 -3.78E-09

  *** SCF run converged in   138 steps ***


  Electronic density on regular grids:        -93.9999992966        0.0000007034
  Core density on regular grids:               92.9999999999       -0.0000000001
  Total charge density on r-space grids:       -0.9999992967
  Total charge density g-space grids:          -0.9999992967

  Overlap energy of the core charge distribution:               0.00000625979298
  Self energy of the core charge distribution:               -391.34137466423209
  Core Hamiltonian energy:                                    118.27939815861158
  Hartree energy:                                             158.57686616772543
  Exchange-correlation energy:                                -44.21543490856619

  Total energy:                                              -158.70053898666828

 ENERGY| Total FORCE_EVAL ( QS ) energy (a.u.):             -158.700538987829447


 Number of electrons:                                                         94
 Number of occupied orbitals:                                                 47
 Number of molecular orbitals:                                                47

 Number of orbital functions:                                                289
 Number of independent orbital functions:                                    289

 Extrapolation method: ASPC


 SCF WAVEFUNCTION OPTIMIZATION

  ----------------------------------- OT ---------------------------------------
  Minimizer      : DIIS                : direct inversion
                                         in the iterative subspace
                                         using   7 DIIS vectors
                                         safer DIIS on
  Preconditioner : FULL_SINGLE_INVERSE : inversion of 
                                         H + eS - 2*(Sc)(c^T*H*c+const)(Sc)^T
  Precond_solver : DEFAULT
  stepsize       :    0.15000000                  energy_gap     :    0.08000000
  eps_taylor     :   0.10000E-15                  max_taylor     :             4
  ----------------------------------- OT ---------------------------------------

  Step     Update method      Time    Convergence         Total energy    Change
  ------------------------------------------------------------------------------
     1 OT DIIS     0.15E+00    0.8     0.01783974      -158.0669611984 -1.58E+02
     2 OT DIIS     0.15E+00    0.9     0.01226100      -158.3755578899 -3.09E-01
     3 OT DIIS     0.15E+00    1.0     0.01422126      -158.3982377642 -2.27E-02
     4 OT DIIS     0.15E+00    0.9     0.00757625      -158.4480012071 -4.98E-02
     5 OT DIIS     0.15E+00    0.8     0.00560465      -158.4577129076 -9.71E-03
     6 OT DIIS     0.15E+00    0.8     0.00334101      -158.4634489886 -5.74E-03
     7 OT DIIS     0.15E+00    0.7     0.00212489      -158.4652394213 -1.79E-03
     8 OT DIIS     0.15E+00    0.7     0.00103821      -158.4662353037 -9.96E-04
     9 OT DIIS     0.15E+00    0.7     0.00084628      -158.4664983480 -2.63E-04
    10 OT DIIS     0.15E+00    0.7     0.00050537      -158.4667285318 -2.30E-04
    11 OT DIIS     0.15E+00    0.8     0.00044100      -158.4668028729 -7.43E-05
    12 OT DIIS     0.15E+00    1.8     0.00030284      -158.4668934796 -9.06E-05
    13 OT DIIS     0.15E+00    1.0     0.00029594      -158.4669298614 -3.64E-05
    14 OT DIIS     0.15E+00    0.9     0.00029290      -158.4669423620 -1.25E-05
    15 OT DIIS     0.15E+00    0.8     0.00025482      -158.4669575925 -1.52E-05
    16 OT DIIS     0.15E+00    0.7     0.00015672      -158.4669713925 -1.38E-05
    17 OT DIIS     0.15E+00    0.7     0.00015182      -158.4669755795 -4.19E-06
    18 OT DIIS     0.15E+00    0.8     0.00010774      -158.4669794754 -3.90E-06
    19 OT DIIS     0.15E+00    0.7     0.00009316      -158.4669822706 -2.80E-06
    20 OT DIIS     0.15E+00    0.7     0.00006168      -158.4669841553 -1.88E-06
    21 OT DIIS     0.15E+00    0.8     0.00005425      -158.4669855942 -1.44E-06
    22 OT DIIS     0.15E+00    0.7     0.00005648      -158.4669864316 -8.37E-07
    23 OT DIIS     0.15E+00    0.7     0.00005209      -158.4669871583 -7.27E-07
    24 OT DIIS     0.15E+00    0.7     0.00004009      -158.4669878238 -6.65E-07
    25 OT DIIS     0.15E+00    0.7     0.00003868      -158.4669883432 -5.19E-07
    26 OT DIIS     0.15E+00    0.7     0.00003437      -158.4669887471 -4.04E-07
    27 OT DIIS     0.15E+00    0.7     0.00003075      -158.4669890599 -3.13E-07
    28 OT DIIS     0.15E+00    0.8     0.00002482      -158.4669892249 -1.65E-07
    29 OT DIIS     0.15E+00    0.7     0.00002091      -158.4669893849 -1.60E-07
    30 OT DIIS     0.15E+00    0.8     0.00002007      -158.4669894951 -1.10E-07
    31 OT DIIS     0.15E+00    0.8     0.00001859      -158.4669895489 -5.39E-08
    32 OT DIIS     0.15E+00    0.9     0.00001361      -158.4669896066 -5.76E-08
    33 OT DIIS     0.15E+00    0.8     0.00001104      -158.4669896539 -4.73E-08
    34 OT DIIS     0.15E+00    0.8     0.00000974      -158.4669896942 -4.03E-08
    35 OT DIIS     0.15E+00    0.7     0.00000832      -158.4669897225 -2.83E-08
    36 OT DIIS     0.15E+00    0.7     0.00000788      -158.4669897437 -2.13E-08
    37 OT DIIS     0.15E+00    0.8     0.00000672      -158.4669897658 -2.20E-08
    38 OT DIIS     0.15E+00    0.7     0.00000692      -158.4669897796 -1.38E-08
    39 OT DIIS     0.15E+00    0.8     0.00000725      -158.4669897878 -8.18E-09
    40 OT DIIS     0.15E+00    0.8     0.00000589      -158.4669897968 -8.98E-09
    41 OT DIIS     0.15E+00    0.7     0.00000495      -158.4669898022 -5.42E-09
    42 OT DIIS     0.15E+00    0.7     0.00000415      -158.4669898076 -5.37E-09
    43 OT DIIS     0.15E+00    0.7     0.00000325      -158.4669898106 -3.00E-09
    44 OT DIIS     0.15E+00    0.7     0.00000278      -158.4669898134 -2.88E-09
    45 OT DIIS     0.15E+00    0.8     0.00000219      -158.4669898157 -2.25E-09
    46 OT DIIS     0.15E+00    0.8     0.00000210      -158.4669898171 -1.38E-09
    47 OT DIIS     0.15E+00    0.7     0.00000211      -158.4669898184 -1.33E-09
    48 OT DIIS     0.15E+00    0.7     0.00000185      -158.4669898197 -1.25E-09
    49 OT DIIS     0.15E+00    0.7     0.00000176      -158.4669898205 -7.98E-10
    50 OT DIIS     0.15E+00    0.7     0.00000159      -158.4669898212 -7.45E-10
    51 OT DIIS     0.15E+00    0.7     0.00000143      -158.4669898217 -5.00E-10
    52 OT DIIS     0.15E+00    0.7     0.00000126      -158.4669898222 -4.90E-10
    53 OT DIIS     0.15E+00    0.7     0.00000101      -158.4669898225 -3.20E-10
    54 OT DIIS     0.15E+00    0.7     0.00000097      -158.4669898226 -1.35E-10

  *** SCF run converged in    54 steps ***


  Electronic density on regular grids:        -93.9999995870        0.0000004130
  Core density on regular grids:               92.9999999999       -0.0000000001
  Total charge density on r-space grids:       -0.9999995871
  Total charge density g-space grids:          -0.9999995871

  Overlap energy of the core charge distribution:               0.00017632854714
  Self energy of the core charge distribution:               -391.34137466423209
  Core Hamiltonian energy:                                    118.49732069706324
  Hartree energy:                                             158.59272284171166
  Exchange-correlation energy:                                -44.21583502573057

  Total energy:                                              -158.46698982264064

 ENERGY| Total FORCE_EVAL ( QS ) energy (a.u.):             -158.466989822839480


 Number of electrons:                                                         94
 Number of occupied orbitals:                                                 47
 Number of molecular orbitals:                                                47

 Number of orbital functions:                                                289
 Number of independent orbital functions:                                    289

 Extrapolation method: ASPC


 SCF WAVEFUNCTION OPTIMIZATION

  ----------------------------------- OT ---------------------------------------
  Minimizer      : DIIS                : direct inversion
                                         in the iterative subspace
                                         using   7 DIIS vectors
                                         safer DIIS on
  Preconditioner : FULL_SINGLE_INVERSE : inversion of 
                                         H + eS - 2*(Sc)(c^T*H*c+const)(Sc)^T
  Precond_solver : DEFAULT
  stepsize       :    0.15000000                  energy_gap     :    0.08000000
  eps_taylor     :   0.10000E-15                  max_taylor     :             4
  ----------------------------------- OT ---------------------------------------

  Step     Update method      Time    Convergence         Total energy    Change
  ------------------------------------------------------------------------------
     1 OT DIIS     0.15E+00    0.6     0.02826724      -157.8455712456 -1.58E+02
     2 OT DIIS     0.15E+00    0.7     0.01883893      -158.6268490815 -7.81E-01
     3 OT DIIS     0.15E+00    0.7     0.01930093      -158.6995526353 -7.27E-02
     4 OT DIIS     0.15E+00    0.7     0.01004011      -158.8080460467 -1.08E-01
     5 OT DIIS     0.15E+00    0.7     0.00687377      -158.8344364763 -2.64E-02
     6 OT DIIS     0.15E+00    0.7     0.00463414      -158.8425052551 -8.07E-03
     7 OT DIIS     0.15E+00    0.8     0.00250815      -158.8462531335 -3.75E-03
     8 OT DIIS     0.15E+00    0.7     0.00150477      -158.8475490683 -1.30E-03
     9 OT DIIS     0.15E+00    0.8     0.00098274      -158.8479331490 -3.84E-04
    10 OT DIIS     0.15E+00    0.8     0.00035786      -158.8481438808 -2.11E-04
    11 OT DIIS     0.15E+00    0.7     0.00021728      -158.8481777043 -3.38E-05
    12 OT DIIS     0.15E+00    0.7     0.00013427      -158.8481904575 -1.28E-05
    13 OT DIIS     0.15E+00    0.8     0.00011115      -158.8481938421 -3.38E-06
    14 OT DIIS     0.15E+00    0.7     0.00010440      -158.8481957149 -1.87E-06
    15 OT DIIS     0.15E+00    0.8     0.00006818      -158.8481973901 -1.68E-06
    16 OT DIIS     0.15E+00    0.7     0.00004466      -158.8481981799 -7.90E-07
    17 OT DIIS     0.15E+00    0.8     0.00003903      -158.8481985220 -3.42E-07
    18 OT DIIS     0.15E+00    0.7     0.00002574      -158.8481987944 -2.72E-07
    19 OT DIIS     0.15E+00    0.7     0.00001549      -158.8481989992 -2.05E-07
    20 OT DIIS     0.15E+00    0.7     0.00001401      -158.8481990576 -5.84E-08
    21 OT DIIS     0.15E+00    0.7     0.00001167      -158.8481991295 -7.18E-08
    22 OT DIIS     0.15E+00    0.8     0.00001184      -158.8481991615 -3.20E-08
    23 OT DIIS     0.15E+00    0.8     0.00000950      -158.8481991975 -3.60E-08
    24 OT DIIS     0.15E+00    0.7     0.00000778      -158.8481992289 -3.14E-08
    25 OT DIIS     0.15E+00    0.9     0.00000712      -158.8481992550 -2.61E-08
    26 OT DIIS     0.15E+00    0.9     0.00000632      -158.8481992775 -2.25E-08
    27 OT DIIS     0.15E+00    1.0     0.00000475      -158.8481992943 -1.68E-08
    28 OT DIIS     0.15E+00    0.9     0.00000478      -158.8481993136 -1.94E-08
    29 OT DIIS     0.15E+00    0.9     0.00000424      -158.8481993266 -1.30E-08
    30 OT DIIS     0.15E+00    0.8     0.00000462      -158.8481993366 -9.92E-09
    31 OT DIIS     0.15E+00    0.7     0.00000429      -158.8481993430 -6.43E-09
    32 OT DIIS     0.15E+00    0.8     0.00000357      -158.8481993554 -1.24E-08
    33 OT DIIS     0.15E+00    0.7     0.00000339      -158.8481993636 -8.22E-09
    34 OT DIIS     0.15E+00    0.8     0.00000323      -158.8481993726 -9.01E-09
    35 OT DIIS     0.15E+00    0.8     0.00000282      -158.8481993803 -7.72E-09
    36 OT DIIS     0.15E+00    1.8     0.00000291      -158.8481993912 -1.08E-08
    37 OT DIIS     0.15E+00    1.0     0.00000274      -158.8481993977 -6.53E-09
    38 OT DIIS     0.15E+00    0.9     0.00000314      -158.8481994056 -7.89E-09
    39 OT DIIS     0.15E+00    0.8     0.00000323      -158.8481994097 -4.07E-09
    40 OT DIIS     0.15E+00    0.7     0.00000274      -158.8481994164 -6.69E-09
    41 OT DIIS     0.15E+00    0.7     0.00000255      -158.8481994209 -4.50E-09
    42 OT DIIS     0.15E+00    0.7     0.00000242      -158.8481994248 -3.95E-09
    43 OT DIIS     0.15E+00    0.8     0.00000203      -158.8481994288 -3.99E-09
    44 OT DIIS     0.15E+00    0.7     0.00000202      -158.8481994324 -3.56E-09
    45 OT DIIS     0.15E+00    1.0     0.00000181      -158.8481994341 -1.77E-09
    46 OT DIIS     0.15E+00    0.7     0.00000192      -158.8481994370 -2.86E-09
    47 OT DIIS     0.15E+00    0.7     0.00000194      -158.8481994387 -1.68E-09
    48 OT DIIS     0.15E+00    0.7     0.00000170      -158.8481994405 -1.88E-09
    49 OT DIIS     0.15E+00    0.7     0.00000158      -158.8481994425 -1.94E-09
    50 OT DIIS     0.15E+00    0.7     0.00000155      -158.8481994442 -1.70E-09
    51 OT DIIS     0.15E+00    0.7     0.00000136      -158.8481994466 -2.38E-09
    52 OT DIIS     0.15E+00    0.8     0.00000142      -158.8481994484 -1.83E-09
    53 OT DIIS     0.15E+00    0.7     0.00000137      -158.8481994496 -1.24E-09
    54 OT DIIS     0.15E+00    0.7     0.00000145      -158.8481994513 -1.70E-09
    55 OT DIIS     0.15E+00    0.7     0.00000153      -158.8481994526 -1.28E-09
    56 OT DIIS     0.15E+00    0.7     0.00000136      -158.8481994533 -6.85E-10
    57 OT DIIS     0.15E+00    0.7     0.00000120      -158.8481994543 -1.03E-09
    58 OT DIIS     0.15E+00    0.8     0.00000114      -158.8481994550 -6.57E-10
    59 OT DIIS     0.15E+00    0.7     0.00000095      -158.8481994561 -1.06E-09

  *** SCF run converged in    59 steps ***


  Electronic density on regular grids:        -93.9999997985        0.0000002015
  Core density on regular grids:               92.9999999999       -0.0000000001
  Total charge density on r-space grids:       -0.9999997986
  Total charge density g-space grids:          -0.9999997986

  Overlap energy of the core charge distribution:               0.00000650934429
  Self energy of the core charge distribution:               -391.34137466423209
  Core Hamiltonian energy:                                    117.83566369554228
  Hartree energy:                                             158.81740823625680
  Exchange-correlation energy:                                -44.15990323296420

  Total energy:                                              -158.84819945605290

 ENERGY| Total FORCE_EVAL ( QS ) energy (a.u.):             -158.848199456663792


 --------  Informations at step =     1 ------------
  Optimization Method        =                LBFGS
  Total Energy               =      -158.8481994567
  Real energy change         =        -0.1476604688
  Decrease in energy         =                  YES
  Used time                  =              199.753

  Convergence check :
  Max. step size             =         0.1181758853
  Conv. limit for step size  =         0.0030000000
  Convergence in step size   =                   NO
  RMS step size              =         0.0304242864
  Conv. limit for RMS step   =         0.0015000000
  Convergence in RMS step    =                   NO
  Max. gradient              =         0.0931653661
  Conv. limit for gradients  =         0.0004500000
  Conv. for gradients        =                   NO
  RMS gradient               =         0.0240608726
  Conv. limit for RMS grad.  =         0.0003000000
  Conv. for gradients        =                   NO
 ---------------------------------------------------

 --------------------------
 OPTIMIZATION STEP:      2
 --------------------------

 Number of electrons:                                                         94
 Number of occupied orbitals:                                                 47
 Number of molecular orbitals:                                                47

 Number of orbital functions:                                                289
 Number of independent orbital functions:                                    289

 Extrapolation method: ASPC


 SCF WAVEFUNCTION OPTIMIZATION

  ----------------------------------- OT ---------------------------------------
  Minimizer      : DIIS                : direct inversion
                                         in the iterative subspace
                                         using   7 DIIS vectors
                                         safer DIIS on
  Preconditioner : FULL_SINGLE_INVERSE : inversion of 
                                         H + eS - 2*(Sc)(c^T*H*c+const)(Sc)^T
  Precond_solver : DEFAULT
  stepsize       :    0.15000000                  energy_gap     :    0.08000000
  eps_taylor     :   0.10000E-15                  max_taylor     :             4
  ----------------------------------- OT ---------------------------------------

  Step     Update method      Time    Convergence         Total energy    Change
  ------------------------------------------------------------------------------
     1 OT DIIS     0.15E+00    0.7     0.02407982      -158.1968416333 -1.58E+02
     2 OT DIIS     0.15E+00    0.7     0.02295414      -158.6454947251 -4.49E-01
     3 OT DIIS     0.15E+00    0.7     0.02094672      -158.7366947444 -9.12E-02
     4 OT DIIS     0.15E+00    0.7     0.01274400      -158.8179877216 -8.13E-02
     5 OT DIIS     0.15E+00    0.7     0.00505071      -158.8565399034 -3.86E-02
     6 OT DIIS     0.15E+00    0.7     0.00399974      -158.8618834952 -5.34E-03
     7 OT DIIS     0.15E+00    0.8     0.00265825      -158.8643441683 -2.46E-03
     8 OT DIIS     0.15E+00    0.7     0.00130210      -158.8655754475 -1.23E-03
     9 OT DIIS     0.15E+00    0.7     0.00093328      -158.8659237185 -3.48E-04
    10 OT DIIS     0.15E+00    0.7     0.00060610      -158.8660669767 -1.43E-04
    11 OT DIIS     0.15E+00    0.8     0.00041323      -158.8661349907 -6.80E-05
    12 OT DIIS     0.15E+00    0.8     0.00024928      -158.8661934368 -5.84E-05
    13 OT DIIS     0.15E+00    0.8     0.00023344      -158.8662100183 -1.66E-05
    14 OT DIIS     0.15E+00    0.7     0.00016719      -158.8662302821 -2.03E-05
    15 OT DIIS     0.15E+00    0.7     0.00019589      -158.8662391998 -8.92E-06
    16 OT DIIS     0.15E+00    0.7     0.00014102      -158.8662533990 -1.42E-05
    17 OT DIIS     0.15E+00    0.7     0.00012317      -158.8662620924 -8.69E-06
    18 OT DIIS     0.15E+00    0.7     0.00013095      -158.8662698454 -7.75E-06
    19 OT DIIS     0.15E+00    0.7     0.00011623      -158.8662785710 -8.73E-06
    20 OT DIIS     0.15E+00    0.7     0.00009830      -158.8662828405 -4.27E-06
    21 OT DIIS     0.15E+00    0.7     0.00009772      -158.8662908141 -7.97E-06
    22 OT DIIS     0.15E+00    0.7     0.00008400      -158.8662954334 -4.62E-06
    23 OT DIIS     0.15E+00    0.8     0.00010296      -158.8662991736 -3.74E-06
    24 OT DIIS     0.15E+00    0.8     0.00008031      -158.8663016980 -2.52E-06
    25 OT DIIS     0.15E+00    0.9     0.00007106      -158.8663051029 -3.40E-06
    26 OT DIIS     0.15E+00    1.0     0.00007121      -158.8663078373 -2.73E-06
    27 OT DIIS     0.15E+00    0.9     0.00006758      -158.8663097165 -1.88E-06
    28 OT DIIS     0.15E+00    0.9     0.00005513      -158.8663102414 -5.25E-07
    29 OT DIIS     0.15E+00    0.8     0.00004965      -158.8663126422 -2.40E-06
    30 OT DIIS     0.15E+00    0.7     0.00004341      -158.8663138708 -1.23E-06
    31 OT DIIS     0.15E+00    0.8     0.00005132      -158.8663152749 -1.40E-06
    32 OT DIIS     0.15E+00    0.7     0.00004458      -158.8663158333 -5.58E-07
    33 OT DIIS     0.15E+00    0.7     0.00003873      -158.8663172682 -1.43E-06
    34 OT DIIS     0.15E+00    0.7     0.00004171      -158.8663184272 -1.16E-06
    35 OT DIIS     0.15E+00    1.8     0.00004172      -158.8663193034 -8.76E-07
    36 OT DIIS     0.15E+00    1.0     0.00003904      -158.8663196730 -3.70E-07
    37 OT DIIS     0.15E+00    0.9     0.00003468      -158.8663207439 -1.07E-06
    38 OT DIIS     0.15E+00    0.8     0.00002990      -158.8663213130 -5.69E-07
    39 OT DIIS     0.15E+00    0.7     0.00003493      -158.8663218853 -5.72E-07
    40 OT DIIS     0.15E+00    0.7     0.00003042      -158.8663220624 -1.77E-07
    41 OT DIIS     0.15E+00    0.7     0.00002494      -158.8663225559 -4.94E-07
    42 OT DIIS     0.15E+00    0.7     0.00002521      -158.8663229407 -3.85E-07
    43 OT DIIS     0.15E+00    0.7     0.00002382      -158.8663232368 -2.96E-07
    44 OT DIIS     0.15E+00    0.7     0.00002385      -158.8663234238 -1.87E-07
    45 OT DIIS     0.15E+00    0.7     0.00002033      -158.8663237771 -3.53E-07
    46 OT DIIS     0.15E+00    0.8     0.00001888      -158.8663240468 -2.70E-07
    47 OT DIIS     0.15E+00    0.8     0.00002164      -158.8663243376 -2.91E-07
    48 OT DIIS     0.15E+00    0.7     0.00002102      -158.8663245068 -1.69E-07
    49 OT DIIS     0.15E+00    0.7     0.00001850      -158.8663247361 -2.29E-07
    50 OT DIIS     0.15E+00    0.7     0.00001866      -158.8663249156 -1.79E-07
    51 OT DIIS     0.15E+00    0.7     0.00001763      -158.8663250565 -1.41E-07
    52 OT DIIS     0.15E+00    0.7     0.00001819      -158.8663251947 -1.38E-07
    53 OT DIIS     0.15E+00    0.8     0.00001462      -158.8663252970 -1.02E-07
    54 OT DIIS     0.15E+00    0.8     0.00001326      -158.8663253961 -9.91E-08
    55 OT DIIS     0.15E+00    0.7     0.00001340      -158.8663255018 -1.06E-07
    56 OT DIIS     0.15E+00    0.7     0.00001295      -158.8663255898 -8.80E-08
    57 OT DIIS     0.15E+00    0.7     0.00001177      -158.8663256778 -8.80E-08
    58 OT DIIS     0.15E+00    0.7     0.00001173      -158.8663257511 -7.33E-08
    59 OT DIIS     0.15E+00    0.7     0.00001158      -158.8663258275 -7.63E-08
    60 OT DIIS     0.15E+00    0.7     0.00001236      -158.8663259302 -1.03E-07
    61 OT DIIS     0.15E+00    0.7     0.00001094      -158.8663259724 -4.22E-08
    62 OT DIIS     0.15E+00    0.8     0.00001060      -158.8663260306 -5.82E-08
    63 OT DIIS     0.15E+00    0.7     0.00001037      -158.8663260848 -5.42E-08
    64 OT DIIS     0.15E+00    0.8     0.00001015      -158.8663261409 -5.61E-08
    65 OT DIIS     0.15E+00    0.8     0.00000903      -158.8663261791 -3.82E-08
    66 OT DIIS     0.15E+00    0.8     0.00000858      -158.8663262021 -2.30E-08
    67 OT DIIS     0.15E+00    0.7     0.00000795      -158.8663262329 -3.08E-08
    68 OT DIIS     0.15E+00    0.8     0.00000777      -158.8663262822 -4.93E-08
    69 OT DIIS     0.15E+00    0.8     0.00000725      -158.8663262991 -1.69E-08
    70 OT DIIS     0.15E+00    0.7     0.00000704      -158.8663263281 -2.90E-08
    71 OT DIIS     0.15E+00    0.7     0.00000689      -158.8663263562 -2.81E-08
    72 OT DIIS     0.15E+00    0.8     0.00000715      -158.8663263892 -3.30E-08
    73 OT DIIS     0.15E+00    0.8     0.00000665      -158.8663264153 -2.62E-08
    74 OT DIIS     0.15E+00    0.8     0.00000690      -158.8663264275 -1.22E-08
    75 OT DIIS     0.15E+00    0.8     0.00000653      -158.8663264449 -1.73E-08
    76 OT DIIS     0.15E+00    0.7     0.00000605      -158.8663264712 -2.63E-08
    77 OT DIIS     0.15E+00    0.8     0.00000572      -158.8663264795 -8.31E-09
    78 OT DIIS     0.15E+00    0.7     0.00000521      -158.8663264923 -1.28E-08
    79 OT DIIS     0.15E+00    0.8     0.00000489      -158.8663265033 -1.10E-08
    80 OT DIIS     0.15E+00    0.7     0.00000473      -158.8663265178 -1.45E-08
    81 OT DIIS     0.15E+00    0.7     0.00000436      -158.8663265302 -1.25E-08
    82 OT DIIS     0.15E+00    0.7     0.00000463      -158.8663265384 -8.18E-09
    83 OT DIIS     0.15E+00    0.8     0.00000452      -158.8663265483 -9.87E-09
    84 OT DIIS     0.15E+00    0.8     0.00000427      -158.8663265610 -1.27E-08
    85 OT DIIS     0.15E+00    1.0     0.00000442      -158.8663265688 -7.79E-09
    86 OT DIIS     0.15E+00    1.0     0.00000409      -158.8663265768 -8.07E-09
    87 OT DIIS     0.15E+00    1.0     0.00000406      -158.8663265828 -6.02E-09
    88 OT DIIS     0.15E+00    0.8     0.00000387      -158.8663265898 -6.96E-09
    89 OT DIIS     0.15E+00    0.8     0.00000336      -158.8663265956 -5.78E-09
    90 OT DIIS     0.15E+00    0.7     0.00000343      -158.8663266004 -4.81E-09
    91 OT DIIS     0.15E+00    0.7     0.00000323      -158.8663266048 -4.36E-09
    92 OT DIIS     0.15E+00    0.8     0.00000290      -158.8663266095 -4.77E-09
    93 OT DIIS     0.15E+00    0.7     0.00000298      -158.8663266144 -4.84E-09
    94 OT DIIS     0.15E+00    0.7     0.00000275      -158.8663266190 -4.68E-09
    95 OT DIIS     0.15E+00    2.0     0.00000292      -158.8663266232 -4.21E-09
    96 OT DIIS     0.15E+00    0.9     0.00000295      -158.8663266270 -3.76E-09
    97 OT DIIS     0.15E+00    0.9     0.00000264      -158.8663266303 -3.35E-09
    98 OT DIIS     0.15E+00    0.8     0.00000280      -158.8663266343 -3.93E-09
    99 OT DIIS     0.15E+00    0.7     0.00000273      -158.8663266369 -2.59E-09
   100 OT DIIS     0.15E+00    0.8     0.00000238      -158.8663266384 -1.51E-09
   101 OT DIIS     0.15E+00    0.7     0.00000235      -158.8663266411 -2.70E-09
   102 OT DIIS     0.15E+00    0.7     0.00000199      -158.8663266435 -2.42E-09
   103 OT DIIS     0.15E+00    0.8     0.00000205      -158.8663266457 -2.25E-09
   104 OT DIIS     0.15E+00    0.7     0.00000204      -158.8663266475 -1.76E-09
   105 OT DIIS     0.15E+00    0.8     0.00000184      -158.8663266492 -1.68E-09
   106 OT DIIS     0.15E+00    0.7     0.00000195      -158.8663266518 -2.66E-09
   107 OT DIIS     0.15E+00    0.7     0.00000202      -158.8663266538 -1.96E-09
   108 OT DIIS     0.15E+00    0.8     0.00000191      -158.8663266545 -6.78E-10
   109 OT DIIS     0.15E+00    0.7     0.00000196      -158.8663266562 -1.71E-09
   110 OT DIIS     0.15E+00    0.7     0.00000164      -158.8663266578 -1.57E-09
   111 OT DIIS     0.15E+00    0.7     0.00000168      -158.8663266591 -1.37E-09
   112 OT DIIS     0.15E+00    0.7     0.00000165      -158.8663266599 -7.78E-10
   113 OT DIIS     0.15E+00    0.7     0.00000141      -158.8663266606 -7.00E-10
   114 OT DIIS     0.15E+00    0.8     0.00000137      -158.8663266620 -1.36E-09
   115 OT DIIS     0.15E+00    0.8     0.00000138      -158.8663266631 -1.12E-09
   116 OT DIIS     0.15E+00    0.8     0.00000134      -158.8663266635 -4.31E-10
   117 OT DIIS     0.15E+00    0.8     0.00000139      -158.8663266645 -9.42E-10
   118 OT DIIS     0.15E+00    0.7     0.00000121      -158.8663266655 -9.96E-10
   119 OT DIIS     0.15E+00    0.8     0.00000128      -158.8663266664 -9.53E-10
   120 OT DIIS     0.15E+00    0.7     0.00000135      -158.8663266669 -5.22E-10
   121 OT DIIS     0.15E+00    0.8     0.00000119      -158.8663266673 -4.16E-10
   122 OT DIIS     0.15E+00    0.8     0.00000114      -158.8663266681 -7.14E-10
   123 OT DIIS     0.15E+00    0.7     0.00000109      -158.8663266687 -6.30E-10
   124 OT DIIS     0.15E+00    0.8     0.00000103      -158.8663266689 -2.58E-10
   125 OT DIIS     0.15E+00    0.7     0.00000102      -158.8663266694 -4.13E-10
   126 OT DIIS     0.15E+00    0.7     0.00000086      -158.8663266698 -4.85E-10

  *** SCF run converged in   126 steps ***


  Electronic density on regular grids:        -93.9999997155        0.0000002845
  Core density on regular grids:               92.9999999999       -0.0000000001
  Total charge density on r-space grids:       -0.9999997156
  Total charge density g-space grids:          -0.9999997156

  Overlap energy of the core charge distribution:               0.00000560714993
  Self energy of the core charge distribution:               -391.34137466423209
  Core Hamiltonian energy:                                    117.83454747729722
  Hartree energy:                                             158.80378539227235
  Exchange-correlation energy:                                -44.16329048233345

  Total energy:                                              -158.86632666984605

 ENERGY| Total FORCE_EVAL ( QS ) energy (a.u.):             -158.866326670361786


 --------  Informations at step =     2 ------------
  Optimization Method        =                LBFGS
  Total Energy               =      -158.8663266704
  Real energy change         =        -0.0181272137
  Decrease in energy         =                  YES
  Used time                  =               99.770

  Convergence check :
  Max. step size             =         0.0477105462
  Conv. limit for step size  =         0.0030000000
  Convergence in step size   =                   NO
  RMS step size              =         0.0117691450
  Conv. limit for RMS step   =         0.0015000000
  Convergence in RMS step    =                   NO
  Max. gradient              =         0.0452789744
  Conv. limit for gradients  =         0.0004500000
  Conv. for gradients        =                   NO
  RMS gradient               =         0.0129810336
  Conv. limit for RMS grad.  =         0.0003000000
  Conv. for gradients        =                   NO
 ---------------------------------------------------

 --------------------------
 OPTIMIZATION STEP:      3
 --------------------------

 Number of electrons:                                                         94
 Number of occupied orbitals:                                                 47
 Number of molecular orbitals:                                                47

 Number of orbital functions:                                                289
 Number of independent orbital functions:                                    289

 Extrapolation method: ASPC


 SCF WAVEFUNCTION OPTIMIZATION

  ----------------------------------- OT ---------------------------------------
  Minimizer      : DIIS                : direct inversion
                                         in the iterative subspace
                                         using   7 DIIS vectors
                                         safer DIIS on
  Preconditioner : FULL_SINGLE_INVERSE : inversion of 
                                         H + eS - 2*(Sc)(c^T*H*c+const)(Sc)^T
  Precond_solver : DEFAULT
  stepsize       :    0.15000000                  energy_gap     :    0.08000000
  eps_taylor     :   0.10000E-15                  max_taylor     :             4
  ----------------------------------- OT ---------------------------------------

  Step     Update method      Time    Convergence         Total energy    Change
  ------------------------------------------------------------------------------
     1 OT DIIS     0.15E+00    0.6     0.01501538      -158.5101114824 -1.59E+02
     2 OT DIIS     0.15E+00    0.7     0.01131119      -158.7412947148 -2.31E-01
     3 OT DIIS     0.15E+00    0.7     0.00980682      -158.8002610964 -5.90E-02
     4 OT DIIS     0.15E+00    0.7     0.00655562      -158.8473966546 -4.71E-02
     5 OT DIIS     0.15E+00    0.7     0.00475878      -158.8645991693 -1.72E-02
     6 OT DIIS     0.15E+00    0.7     0.00492426      -158.8673646601 -2.77E-03
     7 OT DIIS     0.15E+00    0.7     0.00163210      -158.8733171226 -5.95E-03
     8 OT DIIS     0.15E+00    0.8     0.00090633      -158.8740473477 -7.30E-04
     9 OT DIIS     0.15E+00    0.8     0.00044533      -158.8743871553 -3.40E-04
    10 OT DIIS     0.15E+00    0.7     0.00038578      -158.8745290696 -1.42E-04
    11 OT DIIS     0.15E+00    0.7     0.00021536      -158.8745836401 -5.46E-05
    12 OT DIIS     0.15E+00    0.9     0.00016116      -158.8746024989 -1.89E-05
    13 OT DIIS     0.15E+00    0.7     0.00009565      -158.8746140778 -1.16E-05
    14 OT DIIS     0.15E+00    0.8     0.00008629      -158.8746190809 -5.00E-06
    15 OT DIIS     0.15E+00    0.7     0.00004833      -158.8746224264 -3.35E-06
    16 OT DIIS     0.15E+00    0.7     0.00003551      -158.8746237829 -1.36E-06
    17 OT DIIS     0.15E+00    0.8     0.00002287      -158.8746245918 -8.09E-07
    18 OT DIIS     0.15E+00    0.7     0.00002056      -158.8746253372 -7.45E-07
    19 OT DIIS     0.15E+00    0.8     0.00001915      -158.8746260080 -6.71E-07
    20 OT DIIS     0.15E+00    0.7     0.00001824      -158.8746268739 -8.66E-07
    21 OT DIIS     0.15E+00    0.7     0.00001553      -158.8746275110 -6.37E-07
    22 OT DIIS     0.15E+00    0.7     0.00001173      -158.8746279293 -4.18E-07
    23 OT DIIS     0.15E+00    0.7     0.00000883      -158.8746281382 -2.09E-07
    24 OT DIIS     0.15E+00    0.7     0.00000678      -158.8746282411 -1.03E-07
    25 OT DIIS     0.15E+00    0.8     0.00000562      -158.8746282772 -3.61E-08
    26 OT DIIS     0.15E+00    0.8     0.00000374      -158.8746282947 -1.74E-08
    27 OT DIIS     0.15E+00    0.7     0.00000279      -158.8746282983 -3.62E-09
    28 OT DIIS     0.15E+00    0.8     0.00000188      -158.8746283002 -1.96E-09
    29 OT DIIS     0.15E+00    0.7     0.00000156      -158.8746283011 -9.17E-10
    30 OT DIIS     0.15E+00    0.7     0.00000120      -158.8746283019 -7.33E-10
    31 OT DIIS     0.15E+00    0.7     0.00000101      -158.8746283024 -5.68E-10
    32 OT DIIS     0.15E+00    0.7     0.00000086      -158.8746283029 -4.91E-10

  *** SCF run converged in    32 steps ***


  Electronic density on regular grids:        -93.9999997832        0.0000002168
  Core density on regular grids:               92.9999999999       -0.0000000001
  Total charge density on r-space grids:       -0.9999997833
  Total charge density g-space grids:          -0.9999997833

  Overlap energy of the core charge distribution:               0.00000538978816
  Self energy of the core charge distribution:               -391.34137466423209
  Core Hamiltonian energy:                                    117.84709595232084
  Hartree energy:                                             158.78152313030802
  Exchange-correlation energy:                                -44.16187811112419

  Total energy:                                              -158.87462830293924

 ENERGY| Total FORCE_EVAL ( QS ) energy (a.u.):             -158.874628303333168


 --------  Informations at step =     3 ------------
  Optimization Method        =                LBFGS
  Total Energy               =      -158.8746283033
  Real energy change         =        -0.0083016330
  Decrease in energy         =                  YES
  Used time                  =               24.548

  Convergence check :
  Max. step size             =         0.0521170282
  Conv. limit for step size  =         0.0030000000
  Convergence in step size   =                   NO
  RMS step size              =         0.0148324414
  Conv. limit for RMS step   =         0.0015000000
  Convergence in RMS step    =                   NO
  Max. gradient              =         0.0117177028
  Conv. limit for gradients  =         0.0004500000
  Conv. for gradients        =                   NO
  RMS gradient               =         0.0046157866
  Conv. limit for RMS grad.  =         0.0003000000
  Conv. for gradients        =                   NO
 ---------------------------------------------------

 --------------------------
 OPTIMIZATION STEP:      4
 --------------------------

 Number of electrons:                                                         94
 Number of occupied orbitals:                                                 47
 Number of molecular orbitals:                                                47

 Number of orbital functions:                                                289
 Number of independent orbital functions:                                    289

 Extrapolation method: ASPC


 SCF WAVEFUNCTION OPTIMIZATION

  ----------------------------------- OT ---------------------------------------
  Minimizer      : DIIS                : direct inversion
                                         in the iterative subspace
                                         using   7 DIIS vectors
                                         safer DIIS on
  Preconditioner : FULL_SINGLE_INVERSE : inversion of 
                                         H + eS - 2*(Sc)(c^T*H*c+const)(Sc)^T
  Precond_solver : DEFAULT
  stepsize       :    0.15000000                  energy_gap     :    0.08000000
  eps_taylor     :   0.10000E-15                  max_taylor     :             4
  ----------------------------------- OT ---------------------------------------

  Step     Update method      Time    Convergence         Total energy    Change
  ------------------------------------------------------------------------------
     1 OT DIIS     0.15E+00    0.7     0.00903794      -158.7916913275 -1.59E+02
     2 OT DIIS     0.15E+00    0.7     0.00860212      -158.8466776096 -5.50E-02
     3 OT DIIS     0.15E+00    0.7     0.00620451      -158.8632907160 -1.66E-02
     4 OT DIIS     0.15E+00    0.8     0.00306995      -158.8733025064 -1.00E-02
     5 OT DIIS     0.15E+00    1.0     0.00292316      -158.8745244366 -1.22E-03
     6 OT DIIS     0.15E+00    1.0     0.00132021      -158.8757127624 -1.19E-03
     7 OT DIIS     0.15E+00    0.9     0.00057387      -158.8760307624 -3.18E-04
     8 OT DIIS     0.15E+00    0.8     0.00040151      -158.8760811376 -5.04E-05
     9 OT DIIS     0.15E+00    0.7     0.00019083      -158.8761091451 -2.80E-05
    10 OT DIIS     0.15E+00    0.8     0.00016822      -158.8761117385 -2.59E-06
    11 OT DIIS     0.15E+00    0.8     0.00007975      -158.8761164628 -4.72E-06
    12 OT DIIS     0.15E+00    0.7     0.00004707      -158.8761174874 -1.02E-06
    13 OT DIIS     0.15E+00    0.7     0.00003527      -158.8761178613 -3.74E-07
    14 OT DIIS     0.15E+00    0.7     0.00003106      -158.8761179650 -1.04E-07
    15 OT DIIS     0.15E+00    1.9     0.00001439      -158.8761181059 -1.41E-07
    16 OT DIIS     0.15E+00    1.0     0.00001160      -158.8761181407 -3.47E-08
    17 OT DIIS     0.15E+00    0.8     0.00000706      -158.8761181641 -2.35E-08
    18 OT DIIS     0.15E+00    0.8     0.00000747      -158.8761181693 -5.12E-09
    19 OT DIIS     0.15E+00    0.7     0.00000502      -158.8761181775 -8.24E-09
    20 OT DIIS     0.15E+00    0.8     0.00000380      -158.8761181812 -3.73E-09
    21 OT DIIS     0.15E+00    0.8     0.00000248      -158.8761181848 -3.59E-09
    22 OT DIIS     0.15E+00    0.7     0.00000306      -158.8761181857 -9.03E-10
    23 OT DIIS     0.15E+00    0.7     0.00000189      -158.8761181875 -1.75E-09
    24 OT DIIS     0.15E+00    0.7     0.00000166      -158.8761181886 -1.13E-09
    25 OT DIIS     0.15E+00    0.8     0.00000145      -158.8761181894 -7.79E-10
    26 OT DIIS     0.15E+00    0.7     0.00000135      -158.8761181904 -9.96E-10
    27 OT DIIS     0.15E+00    0.7     0.00000140      -158.8761181908 -4.33E-10
    28 OT DIIS     0.15E+00    0.7     0.00000129      -158.8761181913 -5.23E-10
    29 OT DIIS     0.15E+00    0.8     0.00000094      -158.8761181918 -4.94E-10

  *** SCF run converged in    29 steps ***


  Electronic density on regular grids:        -93.9999999024        0.0000000976
  Core density on regular grids:               92.9999999999       -0.0000000001
  Total charge density on r-space grids:       -0.9999999025
  Total charge density g-space grids:          -0.9999999025

  Overlap energy of the core charge distribution:               0.00000522583321
  Self energy of the core charge distribution:               -391.34137466423209
  Core Hamiltonian energy:                                    117.77123460845905
  Hartree energy:                                             158.83609935895979
  Exchange-correlation energy:                                -44.14208272084861

  Total energy:                                              -158.87611819182865

 ENERGY| Total FORCE_EVAL ( QS ) energy (a.u.):             -158.876118192062620


 --------  Informations at step =     4 ------------
  Optimization Method        =                LBFGS
  Total Energy               =      -158.8761181921
  Real energy change         =        -0.0014898887
  Decrease in energy         =                  YES
  Used time                  =               24.819

  Convergence check :
  Max. step size             =         0.0141960052
  Conv. limit for step size  =         0.0030000000
  Convergence in step size   =                   NO
  RMS step size              =         0.0048142462
  Conv. limit for RMS step   =         0.0015000000
  Convergence in RMS step    =                   NO
  Max. gradient              =         0.0082107231
  Conv. limit for gradients  =         0.0004500000
  Conv. for gradients        =                   NO
  RMS gradient               =         0.0032984324
  Conv. limit for RMS grad.  =         0.0003000000
  Conv. for gradients        =                   NO
 ---------------------------------------------------

 --------------------------
 OPTIMIZATION STEP:      5
 --------------------------

 Number of electrons:                                                         94
 Number of occupied orbitals:                                                 47
 Number of molecular orbitals:                                                47

 Number of orbital functions:                                                289
 Number of independent orbital functions:                                    289

 Extrapolation method: ASPC


 SCF WAVEFUNCTION OPTIMIZATION

  ----------------------------------- OT ---------------------------------------
  Minimizer      : DIIS                : direct inversion
                                         in the iterative subspace
                                         using   7 DIIS vectors
                                         safer DIIS on
  Preconditioner : FULL_SINGLE_INVERSE : inversion of 
                                         H + eS - 2*(Sc)(c^T*H*c+const)(Sc)^T
  Precond_solver : DEFAULT
  stepsize       :    0.15000000                  energy_gap     :    0.08000000
  eps_taylor     :   0.10000E-15                  max_taylor     :             4
  ----------------------------------- OT ---------------------------------------

  Step     Update method      Time    Convergence         Total energy    Change
  ------------------------------------------------------------------------------
     1 OT DIIS     0.15E+00    0.6     0.00358539      -158.8652903321 -1.59E+02
     2 OT DIIS     0.15E+00    0.7     0.00381232      -158.8740068975 -8.72E-03
     3 OT DIIS     0.15E+00    0.7     0.00341322      -158.8757175229 -1.71E-03
     4 OT DIIS     0.15E+00    0.7     0.00256795      -158.8775636178 -1.85E-03
     5 OT DIIS     0.15E+00    0.8     0.00127236      -158.8785097015 -9.46E-04
     6 OT DIIS     0.15E+00    0.7     0.00050534      -158.8787779180 -2.68E-04
     7 OT DIIS     0.15E+00    0.7     0.00029554      -158.8788315092 -5.36E-05
     8 OT DIIS     0.15E+00    0.7     0.00017138      -158.8788462152 -1.47E-05
     9 OT DIIS     0.15E+00    0.8     0.00012841      -158.8788496397 -3.42E-06
    10 OT DIIS     0.15E+00    0.7     0.00007411      -158.8788517023 -2.06E-06
    11 OT DIIS     0.15E+00    0.7     0.00003567      -158.8788526812 -9.79E-07
    12 OT DIIS     0.15E+00    0.8     0.00002842      -158.8788528614 -1.80E-07
    13 OT DIIS     0.15E+00    0.7     0.00002366      -158.8788529540 -9.25E-08
    14 OT DIIS     0.15E+00    0.7     0.00001224      -158.8788530402 -8.62E-08
    15 OT DIIS     0.15E+00    0.7     0.00000860      -158.8788530731 -3.29E-08
    16 OT DIIS     0.15E+00    0.7     0.00000719      -158.8788530911 -1.80E-08
    17 OT DIIS     0.15E+00    0.7     0.00000561      -158.8788531067 -1.56E-08
    18 OT DIIS     0.15E+00    0.7     0.00000680      -158.8788531128 -6.12E-09
    19 OT DIIS     0.15E+00    0.8     0.00000437      -158.8788531219 -9.09E-09
    20 OT DIIS     0.15E+00    0.7     0.00000464      -158.8788531268 -4.91E-09
    21 OT DIIS     0.15E+00    0.7     0.00000469      -158.8788531308 -3.98E-09
    22 OT DIIS     0.15E+00    0.7     0.00000376      -158.8788531338 -3.03E-09
    23 OT DIIS     0.15E+00    0.8     0.00000303      -158.8788531364 -2.61E-09
    24 OT DIIS     0.15E+00    0.7     0.00000277      -158.8788531381 -1.63E-09
    25 OT DIIS     0.15E+00    0.8     0.00000200      -158.8788531396 -1.54E-09
    26 OT DIIS     0.15E+00    0.7     0.00000217      -158.8788531408 -1.17E-09
    27 OT DIIS     0.15E+00    0.7     0.00000166      -158.8788531412 -4.73E-10
    28 OT DIIS     0.15E+00    0.7     0.00000150      -158.8788531420 -7.39E-10
    29 OT DIIS     0.15E+00    0.8     0.00000148      -158.8788531425 -4.91E-10
    30 OT DIIS     0.15E+00    0.7     0.00000132      -158.8788531428 -3.52E-10
    31 OT DIIS     0.15E+00    0.7     0.00000110      -158.8788531432 -3.84E-10
    32 OT DIIS     0.15E+00    0.7     0.00000108      -158.8788531434 -2.14E-10
    33 OT DIIS     0.15E+00    0.7     0.00000082      -158.8788531436 -2.24E-10

  *** SCF run converged in    33 steps ***


  Electronic density on regular grids:        -94.0000003156       -0.0000003156
  Core density on regular grids:               92.9999999998       -0.0000000002
  Total charge density on r-space grids:       -1.0000003158
  Total charge density g-space grids:          -1.0000003158

  Overlap energy of the core charge distribution:               0.00000488482805
  Self energy of the core charge distribution:               -391.34137466423209
  Core Hamiltonian energy:                                    117.60007276991871
  Hartree energy:                                             158.95744812892150
  Exchange-correlation energy:                                -44.09500426308071

  Total energy:                                              -158.87885314364451

 ENERGY| Total FORCE_EVAL ( QS ) energy (a.u.):             -158.878853143834732


 --------  Informations at step =     5 ------------
  Optimization Method        =                LBFGS
  Total Energy               =      -158.8788531438
  Real energy change         =        -0.0027349518
  Decrease in energy         =                  YES
  Used time                  =               25.088

  Convergence check :
  Max. step size             =         0.0478393213
  Conv. limit for step size  =         0.0030000000
  Convergence in step size   =                   NO
  RMS step size              =         0.0161159938
  Conv. limit for RMS step   =         0.0015000000
  Convergence in RMS step    =                   NO
  Max. gradient              =         0.0079889357
  Conv. limit for gradients  =         0.0004500000
  Conv. for gradients        =                   NO
  RMS gradient               =         0.0028940801
  Conv. limit for RMS grad.  =         0.0003000000
  Conv. for gradients        =                   NO
 ---------------------------------------------------

 --------------------------
 OPTIMIZATION STEP:      6
 --------------------------

 Number of electrons:                                                         94
 Number of occupied orbitals:                                                 47
 Number of molecular orbitals:                                                47

 Number of orbital functions:                                                289
 Number of independent orbital functions:                                    289

 Extrapolation method: ASPC


 SCF WAVEFUNCTION OPTIMIZATION

  ----------------------------------- OT ---------------------------------------
  Minimizer      : DIIS                : direct inversion
                                         in the iterative subspace
                                         using   7 DIIS vectors
                                         safer DIIS on
  Preconditioner : FULL_SINGLE_INVERSE : inversion of 
                                         H + eS - 2*(Sc)(c^T*H*c+const)(Sc)^T
  Precond_solver : DEFAULT
  stepsize       :    0.15000000                  energy_gap     :    0.08000000
  eps_taylor     :   0.10000E-15                  max_taylor     :             4
  ----------------------------------- OT ---------------------------------------

  Step     Update method      Time    Convergence         Total energy    Change
  ------------------------------------------------------------------------------
     1 OT DIIS     0.15E+00    0.9     0.00215385      -158.8756627564 -1.59E+02
     2 OT DIIS     0.15E+00    1.0     0.00294151      -158.8779704471 -2.31E-03
     3 OT DIIS     0.15E+00    0.9     0.00215296      -158.8793315660 -1.36E-03
     4 OT DIIS     0.15E+00    0.8     0.00202036      -158.8797128982 -3.81E-04
     5 OT DIIS     0.15E+00    0.8     0.00074437      -158.8803409991 -6.28E-04
     6 OT DIIS     0.15E+00    0.7     0.00032327      -158.8804464441 -1.05E-04
     7 OT DIIS     0.15E+00    0.7     0.00024805      -158.8804610886 -1.46E-05
     8 OT DIIS     0.15E+00    0.8     0.00012452      -158.8804711153 -1.00E-05
     9 OT DIIS     0.15E+00    0.8     0.00008476      -158.8804730262 -1.91E-06
    10 OT DIIS     0.15E+00    0.7     0.00004191      -158.8804740559 -1.03E-06
    11 OT DIIS     0.15E+00    1.8     0.00002526      -158.8804744024 -3.47E-07
    12 OT DIIS     0.15E+00    1.1     0.00002102      -158.8804744858 -8.34E-08
    13 OT DIIS     0.15E+00    0.9     0.00001571      -158.8804745307 -4.49E-08
    14 OT DIIS     0.15E+00    0.7     0.00000753      -158.8804745693 -3.86E-08
    15 OT DIIS     0.15E+00    0.7     0.00000624      -158.8804745788 -9.42E-09
    16 OT DIIS     0.15E+00    0.7     0.00000416      -158.8804745853 -6.51E-09
    17 OT DIIS     0.15E+00    0.7     0.00000335      -158.8804745887 -3.39E-09
    18 OT DIIS     0.15E+00    0.7     0.00000302      -158.8804745903 -1.64E-09
    19 OT DIIS     0.15E+00    0.7     0.00000190      -158.8804745922 -1.87E-09
    20 OT DIIS     0.15E+00    0.8     0.00000209      -158.8804745928 -6.21E-10
    21 OT DIIS     0.15E+00    0.7     0.00000201      -158.8804745935 -6.46E-10
    22 OT DIIS     0.15E+00    0.7     0.00000136      -158.8804745941 -6.31E-10
    23 OT DIIS     0.15E+00    0.7     0.00000123      -158.8804745944 -3.66E-10
    24 OT DIIS     0.15E+00    0.7     0.00000109      -158.8804745947 -2.41E-10
    25 OT DIIS     0.15E+00    0.7     0.00000084      -158.8804745950 -2.68E-10

  *** SCF run converged in    25 steps ***


  Electronic density on regular grids:        -94.0000005573       -0.0000005573
  Core density on regular grids:               92.9999999997       -0.0000000003
  Total charge density on r-space grids:       -1.0000005575
  Total charge density g-space grids:          -1.0000005575

  Overlap energy of the core charge distribution:               0.00000464369143
  Self energy of the core charge distribution:               -391.34137466423209
  Core Hamiltonian energy:                                    117.49498553405429
  Hartree energy:                                             159.03392309120011
  Exchange-correlation energy:                                -44.06801319967009

  Total energy:                                              -158.88047459495630

 ENERGY| Total FORCE_EVAL ( QS ) energy (a.u.):             -158.880474595151327


 --------  Informations at step =     6 ------------
  Optimization Method        =                LBFGS
  Total Energy               =      -158.8804745952
  Real energy change         =        -0.0016214513
  Decrease in energy         =                  YES
  Used time                  =               21.638

  Convergence check :
  Max. step size             =         0.0498796637
  Conv. limit for step size  =         0.0030000000
  Convergence in step size   =                   NO
  RMS step size              =         0.0177048878
  Conv. limit for RMS step   =         0.0015000000
  Convergence in RMS step    =                   NO
  Max. gradient              =         0.0271266259
  Conv. limit for gradients  =         0.0004500000
  Conv. for gradients        =                   NO
  RMS gradient               =         0.0048828320
  Conv. limit for RMS grad.  =         0.0003000000
  Conv. for gradients        =                   NO
 ---------------------------------------------------

 --------------------------
 OPTIMIZATION STEP:      7
 --------------------------

 Number of electrons:                                                         94
 Number of occupied orbitals:                                                 47
 Number of molecular orbitals:                                                47

 Number of orbital functions:                                                289
 Number of independent orbital functions:                                    289

 Extrapolation method: ASPC


 SCF WAVEFUNCTION OPTIMIZATION

  ----------------------------------- OT ---------------------------------------
  Minimizer      : DIIS                : direct inversion
                                         in the iterative subspace
                                         using   7 DIIS vectors
                                         safer DIIS on
  Preconditioner : FULL_SINGLE_INVERSE : inversion of 
                                         H + eS - 2*(Sc)(c^T*H*c+const)(Sc)^T
  Precond_solver : DEFAULT
  stepsize       :    0.15000000                  energy_gap     :    0.08000000
  eps_taylor     :   0.10000E-15                  max_taylor     :             4
  ----------------------------------- OT ---------------------------------------

  Step     Update method      Time    Convergence         Total energy    Change
  ------------------------------------------------------------------------------
     1 OT DIIS     0.15E+00    0.6     0.00228388      -158.8772207356 -1.59E+02
     2 OT DIIS     0.15E+00    0.7     0.00340308      -158.8791018897 -1.88E-03
     3 OT DIIS     0.15E+00    0.7     0.00182271      -158.8814292539 -2.33E-03
     4 OT DIIS     0.15E+00    0.7     0.00144351      -158.8819612661 -5.32E-04
     5 OT DIIS     0.15E+00    0.7     0.00076625      -158.8822408025 -2.80E-04
     6 OT DIIS     0.15E+00    0.8     0.00023998      -158.8823416153 -1.01E-04
     7 OT DIIS     0.15E+00    0.7     0.00018280      -158.8823523326 -1.07E-05
     8 OT DIIS     0.15E+00    0.7     0.00010873      -158.8823578718 -5.54E-06
     9 OT DIIS     0.15E+00    0.7     0.00006009      -158.8823594614 -1.59E-06
    10 OT DIIS     0.15E+00    0.7     0.00004056      -158.8823598631 -4.02E-07
    11 OT DIIS     0.15E+00    0.7     0.00001995      -158.8823601533 -2.90E-07
    12 OT DIIS     0.15E+00    0.8     0.00001286      -158.8823602220 -6.87E-08
    13 OT DIIS     0.15E+00    0.8     0.00001212      -158.8823602340 -1.20E-08
    14 OT DIIS     0.15E+00    0.7     0.00000525      -158.8823602543 -2.03E-08
    15 OT DIIS     0.15E+00    0.7     0.00000367      -158.8823602585 -4.21E-09
    16 OT DIIS     0.15E+00    0.7     0.00000242      -158.8823602604 -1.87E-09
    17 OT DIIS     0.15E+00    0.7     0.00000163      -158.8823602612 -7.83E-10
    18 OT DIIS     0.15E+00    0.7     0.00000135      -158.8823602615 -2.55E-10
    19 OT DIIS     0.15E+00    0.8     0.00000087      -158.8823602617 -2.37E-10

  *** SCF run converged in    19 steps ***


  Electronic density on regular grids:        -94.0000001725       -0.0000001725
  Core density on regular grids:               92.9999999998       -0.0000000002
  Total charge density on r-space grids:       -1.0000001727
  Total charge density g-space grids:          -1.0000001727

  Overlap energy of the core charge distribution:               0.00000456480620
  Self energy of the core charge distribution:               -391.34137466423209
  Core Hamiltonian energy:                                    117.49624628060921
  Hartree energy:                                             159.02959068683225
  Exchange-correlation energy:                                -44.06682712970780

  Total energy:                                              -158.88236026169221

 ENERGY| Total FORCE_EVAL ( QS ) energy (a.u.):             -158.882360261790438


 --------  Informations at step =     7 ------------
  Optimization Method        =                LBFGS
  Total Energy               =      -158.8823602618
  Real energy change         =        -0.0018856666
  Decrease in energy         =                  YES
  Used time                  =               14.834

  Convergence check :
  Max. step size             =         0.0458757457
  Conv. limit for step size  =         0.0030000000
  Convergence in step size   =                   NO
  RMS step size              =         0.0151379005
  Conv. limit for RMS step   =         0.0015000000
  Convergence in RMS step    =                   NO
  Max. gradient              =         0.0123186585
  Conv. limit for gradients  =         0.0004500000
  Conv. for gradients        =                   NO
  RMS gradient               =         0.0033201234
  Conv. limit for RMS grad.  =         0.0003000000
  Conv. for gradients        =                   NO
 ---------------------------------------------------

 --------------------------
 OPTIMIZATION STEP:      8
 --------------------------

 Number of electrons:                                                         94
 Number of occupied orbitals:                                                 47
 Number of molecular orbitals:                                                47

 Number of orbital functions:                                                289
 Number of independent orbital functions:                                    289

 Extrapolation method: ASPC


 SCF WAVEFUNCTION OPTIMIZATION

  ----------------------------------- OT ---------------------------------------
  Minimizer      : DIIS                : direct inversion
                                         in the iterative subspace
                                         using   7 DIIS vectors
                                         safer DIIS on
  Preconditioner : FULL_SINGLE_INVERSE : inversion of 
                                         H + eS - 2*(Sc)(c^T*H*c+const)(Sc)^T
  Precond_solver : DEFAULT
  stepsize       :    0.15000000                  energy_gap     :    0.08000000
  eps_taylor     :   0.10000E-15                  max_taylor     :             4
  ----------------------------------- OT ---------------------------------------

  Step     Update method      Time    Convergence         Total energy    Change
  ------------------------------------------------------------------------------
     1 OT DIIS     0.15E+00    0.6     0.00192186      -158.8799624957 -1.59E+02
     2 OT DIIS     0.15E+00    0.7     0.00245947      -158.8821385863 -2.18E-03
     3 OT DIIS     0.15E+00    0.7     0.00195712      -158.8829369896 -7.98E-04
     4 OT DIIS     0.15E+00    0.7     0.00177973      -158.8833239949 -3.87E-04
     5 OT DIIS     0.15E+00    0.8     0.00054940      -158.8838175580 -4.94E-04
     6 OT DIIS     0.15E+00    0.7     0.00021543      -158.8838808674 -6.33E-05
     7 OT DIIS     0.15E+00    0.7     0.00025430      -158.8838838979 -3.03E-06
     8 OT DIIS     0.15E+00    0.7     0.00009316      -158.8838936075 -9.71E-06
     9 OT DIIS     0.15E+00    0.7     0.00004692      -158.8838950074 -1.40E-06
    10 OT DIIS     0.15E+00    0.7     0.00003107      -158.8838953662 -3.59E-07
    11 OT DIIS     0.15E+00    0.8     0.00002089      -158.8838955174 -1.51E-07
    12 OT DIIS     0.15E+00    0.8     0.00001424      -158.8838955793 -6.19E-08
    13 OT DIIS     0.15E+00    0.8     0.00001208      -158.8838955953 -1.59E-08
    14 OT DIIS     0.15E+00    0.9     0.00000517      -158.8838956170 -2.17E-08
    15 OT DIIS     0.15E+00    1.0     0.00000414      -158.8838956210 -4.06E-09
[...]
 COUNTER                                    TOTAL       BLAS       SMM       ACC
 flops    5 x   15 x   15                 5395500     100.0%      0.0%      0.0%
 flops    5 x   15 x   32                 5755200     100.0%      0.0%      0.0%
 flops    5 x   32 x   15                 5755200     100.0%      0.0%      0.0%
 flops   13 x   15 x   15                22955400     100.0%      0.0%      0.0%
 flops   13 x   32 x   15                24485760     100.0%      0.0%      0.0%
 flops   13 x   15 x   32                24485760     100.0%      0.0%      0.0%
 flops    5 x   32 x   32                24555520     100.0%      0.0%      0.0%
 flops   25 x   15 x   10                30300000     100.0%      0.0%      0.0%
 flops   25 x   15 x    5                37875000     100.0%      0.0%      0.0%
 flops   25 x   32 x   10                64640000     100.0%      0.0%      0.0%
 flops   15 x   15 x   10                68796000     100.0%      0.0%      0.0%
 flops   25 x   32 x    5                80800000     100.0%      0.0%      0.0%
 flops   15 x   15 x    5                85995000     100.0%      0.0%      0.0%
 flops   15 x   15 x   15                96329250     100.0%      0.0%      0.0%
 flops   13 x   32 x   32               104472576     100.0%      0.0%      0.0%
 flops   25 x   15 x   15               105041250     100.0%      0.0%      0.0%
 flops    5 x    5 x   15               110731500     100.0%      0.0%      0.0%
 flops   36 x   15 x   10               130896000     100.0%      0.0%      0.0%
 flops   32 x   15 x   10               144672000     100.0%      0.0%      0.0%
 flops   15 x   32 x   10               146764800     100.0%      0.0%      0.0%
 flops   36 x   15 x    5               163620000     100.0%      0.0%      0.0%
 flops   32 x   15 x    5               180840000     100.0%      0.0%      0.0%
 flops   15 x   32 x    5               183456000     100.0%      0.0%      0.0%
 flops   39 x   15 x   10               189072000     100.0%      0.0%      0.0%
 flops   15 x   15 x   32               205502400     100.0%      0.0%      0.0%
 flops   15 x   32 x   15               205502400     100.0%      0.0%      0.0%
 flops   32 x   15 x   15               205502400     100.0%      0.0%      0.0%
 flops   25 x   15 x   32               224088000     100.0%      0.0%      0.0%
 flops   25 x   32 x   15               224088000     100.0%      0.0%      0.0%
 flops    5 x    5 x   32               236227200     100.0%      0.0%      0.0%
 flops   39 x   15 x    5               236340000     100.0%      0.0%      0.0%
 flops   25 x   15 x   13               275730000     100.0%      0.0%      0.0%
 flops   36 x   32 x   10               279244800     100.0%      0.0%      0.0%
 flops   32 x   32 x   10               313098240     100.0%      0.0%      0.0%
 flops   36 x   32 x    5               349056000     100.0%      0.0%      0.0%
 flops   32 x   32 x    5               391372800     100.0%      0.0%      0.0%
 flops   39 x   32 x   10               403353600     100.0%      0.0%      0.0%
 flops   13 x    5 x   15               431852850     100.0%      0.0%      0.0%
 flops    5 x   13 x   15               431852850     100.0%      0.0%      0.0%
 flops    5 x   15 x    5               434692500     100.0%      0.0%      0.0%
 flops   32 x   32 x   15               438405120     100.0%      0.0%      0.0%
 flops   15 x   32 x   32               438405120     100.0%      0.0%      0.0%
 flops   32 x   15 x   32               438405120     100.0%      0.0%      0.0%
 flops   36 x   15 x   15               453778200     100.0%      0.0%      0.0%
 flops   25 x   32 x   32               478054400     100.0%      0.0%      0.0%
 flops   39 x   32 x    5               504192000     100.0%      0.0%      0.0%
 flops   25 x   32 x   13               588224000     100.0%      0.0%      0.0%
 flops   15 x   15 x   13               626043600     100.0%      0.0%      0.0%
 flops   39 x   15 x   15               655457400     100.0%      0.0%      0.0%
 flops   13 x    5 x   32               921286080     100.0%      0.0%      0.0%
 flops    5 x   13 x   32               921286080     100.0%      0.0%      0.0%
 flops    5 x   32 x    5               927344000     100.0%      0.0%      0.0%
 flops   32 x   32 x   32               935264256     100.0%      0.0%      0.0%
 flops   36 x   15 x   32               968060160     100.0%      0.0%      0.0%
 flops   36 x   32 x   15               968060160     100.0%      0.0%      0.0%
 flops   36 x   15 x   13              1191153600     100.0%      0.0%      0.0%
 flops   32 x   15 x   13              1316515200     100.0%      0.0%      0.0%
 flops   15 x   32 x   13              1335559680     100.0%      0.0%      0.0%
 flops   39 x   32 x   15              1398309120     100.0%      0.0%      0.0%
 flops   39 x   15 x   32              1398309120     100.0%      0.0%      0.0%
 flops   39 x   15 x   13              1720555200     100.0%      0.0%      0.0%
 flops    5 x   15 x   13              1849419000     100.0%      0.0%      0.0%
 flops   13 x   15 x    5              1849419000     100.0%      0.0%      0.0%
 flops   13 x   13 x   15              1939411890     100.0%      0.0%      0.0%
 flops   36 x   32 x   32              2065195008     100.0%      0.0%      0.0%
 flops   36 x   32 x   13              2541127680     100.0%      0.0%      0.0%
 flops   32 x   32 x   13              2849193984     100.0%      0.0%      0.0%
 flops   39 x   32 x   32              2983059456     100.0%      0.0%      0.0%
 flops   39 x   32 x   13              3670517760     100.0%      0.0%      0.0%
 flops   13 x   32 x    5              3945427200     100.0%      0.0%      0.0%
 flops    5 x   32 x   13              3945427200     100.0%      0.0%      0.0%
 flops   13 x   13 x   32              4137412032     100.0%      0.0%      0.0%
 flops   13 x   15 x   13              7868437200     100.0%      0.0%      0.0%
 flops   13 x   32 x   13             16785999360     100.0%      0.0%      0.0%
 flops total                        88.844174E+09     100.0%      0.0%      0.0%
 flops max/rank                     12.329350E+09     100.0%      0.0%      0.0%
 matmuls inhomo. stacks                    188361     100.0%      0.0%      0.0%
 matmuls total                           11941776     100.0%      0.0%      0.0%
 number of processed stacks               5731726     100.0%      0.0%      0.0%
 average stack size                                     2.1       0.0       0.0
 marketing flops                    96.120685E+09
 -------------------------------------------------------------------------------
 # multiplications                          40626
 max memory usage/rank             110.841856E+06
 # max total images/rank                        3
 # MPI messages exchanged               717617664
 # MPI messages filtered                        0
 MPI messages size (elements):
  total size                        26.278904E+09
  min size                           0.000000E+00
  max size                           1.248000E+03
  average size                      36.619644E+00
 MPI breakdown and total messages size (bytes):
             size <=      128           652839498                        0
       128 < size <=     8192            62879654             192081991712
      8192 < size <=    32768             1898512              18329862144
     32768 < size <=   131072                   0                        0
    131072 < size <=  4194304                   0                        0
   4194304 < size <= 16777216                   0                        0
  16777216 < size                               0                        0
 -------------------------------------------------------------------------------
 Warning: using a non-square number of MPI ranks might lead to poor performance.
          used ranks: 192
          suggested : 196 400
 -------------------------------------------------------------------------------

 MEMORY| Estimated peak process memory [MiB]                                 106

 -------------------------------------------------------------------------------
 -                                                                             -
 -                         MESSAGE PASSING PERFORMANCE                         -
 -                                                                             -
 -------------------------------------------------------------------------------

 ROUTINE             CALLS  TOT TIME [s]  AVE VOLUME [Bytes]  PERFORMANCE [MB/s]
 MP_Group                5         0.000
 MP_Bcast            45036         1.443              16944.              528.85
 MP_Allreduce       223283        29.735                 92.                0.69
 MP_Sync               577         0.003
 MP_Alltoall        204361       591.822             591169.              204.14
 MP_ISendRecv      1542898         1.200              10800.            13883.74
 MP_Wait          10351677       246.063
 MP_comm_split         573         0.143
 MP_ISend          7999414         6.832               6363.             7450.22
 MP_IRecv          7967777         3.237               6344.            15614.28
 MP_Recv              3151         0.012               4624.             1167.00
 MP_Memory         3075184         0.906
 -------------------------------------------------------------------------------


 -------------------------------------------------------------------------------
 -                                                                             -
 -                           R E F E R E N C E S                               -
 -                                                                             -
 -------------------------------------------------------------------------------
 
 CP2K version 5.0 (Development Version), the CP2K developers group (2016).
 CP2K is freely available from https://www.cp2k.org/ .

 Schuett, Ole; Messmer, Peter; Hutter, Juerg; VandeVondele, Joost. 
 Electronic Structure Calculations on Graphics Processing Units, John Wiley & Sons, Ltd, 173-190 (2016). 
 GPU-Accelerated Sparse Matrix-Matrix Multiplication for Linear Scaling Density Functional Theory.
 http://dx.doi.org/10.1002/9781118670712.ch8


 Borstnik, U; VandeVondele, J; Weber, V; Hutter, J. 
 PARALLEL COMPUTING, 40 (5-6), 47-58 (2014). 
 Sparse matrix multiplication: The distributed block-compressed sparse
 row library.
 http://dx.doi.org/10.1016/j.parco.2014.03.012


 Hutter, J; Iannuzzi, M; Schiffmann, F; VandeVondele, J. 
 WILEY INTERDISCIPLINARY REVIEWS-COMPUTATIONAL MOLECULAR SCIENCE, 4 (1), 15-25 (2014). 
 CP2K: atomistic simulations of condensed matter systems.
 http://dx.doi.org/10.1002/wcms.1159


 VandeVondele, J; Hutter, J. 
 JOURNAL OF CHEMICAL PHYSICS, 127 (11), 114105 (2007). 
 Gaussian basis sets for accurate calculations on molecular systems in
 gas and condensed phases.
 http://dx.doi.org/10.1063/1.2770708


 Genovese, L; Deutsch, T; Goedecker, S. 
 JOURNAL OF CHEMICAL PHYSICS, 127 (5), 054704 (2007). 
 Efficient and accurate three-dimensional Poisson solver for surface
 problems.
 http://dx.doi.org/10.1063/1.2754685


 Genovese, L; Deutsch, T; Neelov, A; Goedecker, S; Beylkin, G. 
 JOURNAL OF CHEMICAL PHYSICS, 125 (7), 074105 (2006). 
 Efficient solution of Poisson's equation with free boundary conditions.
 http://dx.doi.org/10.1063/1.2335442


 Krack, M. 
 THEORETICAL CHEMISTRY ACCOUNTS, 114 (1-3), 145-152 (2005). 
 Pseudopotentials for H to Kr optimized for gradient-corrected
 exchange-correlation functionals.
 http://dx.doi.org/10.1007/s00214-005-0655-y


 VandeVondele, J; Krack, M; Mohamed, F; Parrinello, M; Chassaing, T;
 Hutter, J. COMPUTER PHYSICS COMMUNICATIONS, 167 (2), 103-128 (2005). 
 QUICKSTEP: Fast and accurate density functional calculations using a
 mixed Gaussian and plane waves approach.
 http://dx.doi.org/10.1016/j.cpc.2004.12.014


 Frigo, M; Johnson, SG. 
 PROCEEDINGS OF THE IEEE, 93 (2), 216-231 (2005). 
 The design and implementation of FFTW3.
 http://dx.doi.org/10.1109/JPROC.2004.840301


 Kolafa, J. 
 JOURNAL OF COMPUTATIONAL CHEMISTRY, 25 (3), 335-342 (2004). 
 Time-reversible always stable predictor-corrector method for molecular dynamics of polarizable molecules.
 http://dx.doi.org/10.1002/jcc.10385


 VandeVondele, J; Hutter, J. 
 JOURNAL OF CHEMICAL PHYSICS, 118 (10), 4365-4369 (2003). 
 An efficient orbital transformation method for electronic structure
 calculations.
 http://dx.doi.org/10.1063/1.1543154


 Hartwigsen, C; Goedecker, S; Hutter, J. 
 PHYSICAL REVIEW B, 58 (7), 3641-3662 (1998). 
 Relativistic separable dual-space Gaussian pseudopotentials from H to Rn.
 http://dx.doi.org/10.1103/PhysRevB.58.3641


 Lippert, G; Hutter, J; Parrinello, M. 
 MOLECULAR PHYSICS, 92 (3), 477-487 (1997). 
 A hybrid Gaussian and plane wave density functional scheme.
 http://dx.doi.org/10.1080/002689797170220


 Perdew, JP; Burke, K; Ernzerhof, M. 
 PHYSICAL REVIEW LETTERS, 77 (18), 3865-3868 (1996). 
 Generalized gradient approximation made simple.
 http://dx.doi.org/10.1103/PhysRevLett.77.3865


 Goedecker, S; Teter, M; Hutter, J. 
 PHYSICAL REVIEW B, 54 (3), 1703-1710 (1996). 
 Separable dual-space Gaussian pseudopotentials.
 http://dx.doi.org/10.1103/PhysRevB.54.1703


 BYRD, RH; LU, PH; NOCEDAL, J; ZHU, CY. 
 SIAM JOURNAL ON SCIENTIFIC COMPUTING, 16 (5), 1190-1208 (1995). 
 A LIMITED MEMORY ALGORITHM FOR BOUND CONSTRAINED OPTIMIZATION.
 http://dx.doi.org/10.1137/0916069


 -------------------------------------------------------------------------------
 -                                                                             -
 -                                T I M I N G                                  -
 -                                                                             -
 -------------------------------------------------------------------------------
 SUBROUTINE                       CALLS  ASD         SELF TIME        TOTAL TIME
                                MAXIMUM       AVERAGE  MAXIMUM  AVERAGE  MAXIMUM
 CP2K                                 1  1.0    0.006    0.022 1545.630 1545.632
 cp_geo_opt                           1  2.0    0.000    0.000 1545.254 1545.255
 geoopt_lbfgs                         1  3.0    0.001    0.004 1545.254 1545.255
 cp_eval_at                         109  5.0    0.012    0.018 1538.062 1538.064
 cp_opt_gopt_step                   101  4.0    0.003    0.028 1537.298 1537.299
 qs_forces                          108  6.0    0.006    0.007 1530.096 1530.099
 qs_energies                        109  7.0    0.004    0.004 1480.829 1480.841
 scf_env_do_scf                     109  8.0    0.004    0.007 1444.947 1444.948
 scf_env_do_scf_inner_loop         1911  9.0    0.045    0.129 1384.274 1384.557
 rebuild_ks_matrix                 2019 10.8    0.005    0.006  952.849  954.350
 qs_ks_build_kohn_sham_matrix      2019 11.8    0.203    0.228  952.844  954.345
 qs_ks_update_qs_env               2020 10.0    0.017    0.018  897.375  898.795
 pw_transfer                      38475 14.5    2.020    2.658  528.045  537.018
 fft_wrap_pw1pw2                  38475 15.5    0.285    0.341  526.025  534.969
 fft3d_ps                         38475 17.5   72.174  113.043  494.675  504.302
 fft_wrap_pw1pw2_150              26358 16.5   12.587   15.935  485.685  494.954
 rs_pw_transfer                   16373 14.4    0.209    0.307  396.596  412.101
 mp_alltoall_z22v                 38475 19.5  368.937  386.698  368.937  386.698
 qs_rho_update_rho                 2020 10.0    0.009    0.011  365.856  365.957
 calculate_rho_elec                2020 11.0   13.780  134.032  365.847  365.948
 sum_up_and_integrate              2019 12.8    0.467    0.623  353.216  353.420
 integrate_v_rspace                2019 13.8   12.861  134.005  352.746  352.977
 density_rs2pw                     2020 12.0    0.069    0.105  329.888  341.415
 qs_vxc_create                     2019 12.8    0.034    0.057  318.985  320.059
 xc_vxc_pw_create                  2019 13.8    2.177    3.149  318.951  320.027
 pw_poisson_solve                  2019 12.8    2.843    3.404  235.287  235.294
 yz_to_x                          12224 18.5    5.535    6.338  208.849  220.973
 potential_pw2rs                   2019 14.8    0.081    0.099  214.592  218.302
 mp_alltoall_d11v                 35057 16.0  176.219  190.890  176.219  190.890
 mp_waitany                      335274 16.3  168.081  189.318  168.081  189.318
 x_to_yz                          14134 18.6   13.093   16.281  176.263  179.042
 mp_waitall_1                   ******* 17.9  154.821  178.233  154.821  178.233
 qs_scf_new_mos                    1911 10.0    0.007    0.008  171.692  172.309
 qs_scf_loop_do_ot                 1911 11.0    0.006    0.007  171.684  172.302
 ot_scf_mini                       1911 12.0    0.047    0.051  163.865  164.554
 dbcsr_multiply_generic           40626 15.0    0.773    0.941  154.206  159.697
 xc_rho_set_and_dset_create        2019 14.8    1.211    1.444  135.778  158.228
 rs_pw_transfer_RS2PW_150          2129 13.9   27.512   34.661  135.223  151.208
 rs_distribute_matrix              4147 13.4    0.112    0.592  128.436  140.623
 ps_wavelet_solve                  2019 13.8   31.838   52.404  116.925  118.520
 ot_mini                           1911 13.0    0.006    0.006  109.321  109.883
 qs_ot_get_derivative              1911 14.0    0.020    0.021   98.672   99.341
 multiply_cannon                  40626 16.0    5.139    5.649   79.649   95.575
 mp_alltoall_d54                   2019 14.8   49.849   71.462   49.849   71.462
 rs_pw_transfer_RS2PW_50           2020 14.0   12.195   16.012   44.943   62.724
 rs_pw_transfer_PW2RS_150          2127 16.6   31.967   35.070   59.123   61.582
 init_scf_loop                      109  9.0    0.002    0.002   59.972   59.982
 rs_pw_transfer_PW2RS_20           2019 16.8    3.195    3.494   47.600   56.857
 qs_ks_update_qs_env_forces         108  7.0    0.000    0.000   55.785   55.868
 make_m2s                         81252 16.0    1.070    1.275   50.161   52.499
 xc_functional_eval                2019 15.8    0.020    0.040   26.617   51.160
 pbe_lda_eval                      2019 16.8   26.597   51.145   26.597   51.145
 qs_ot_get_derivative_taylor       1350 15.0    0.037    0.039   48.834   49.289
 make_images                      81252 17.0    3.439    3.555   45.630   47.744
 rs_pw_transfer_RS2PW_20           2020 14.0    3.442    3.925   40.153   44.074
 rs_pw_transfer_PW2RS_50           2019 16.8   10.577   13.156   33.143   43.421
 multiply_cannon_metrocomm1      975024 17.0    1.109    1.370   17.576   37.961
 mp_alltoall_d45                   2020 14.8   34.559   37.141   34.559   37.141
 make_images_sizes                81252 18.0    0.090    0.099   35.588   36.763
 mp_alltoall_i44                  81252 19.0   35.498   36.670   35.498   36.670
 multiply_cannon_metrocomm3      975024 17.0    1.073    1.196   17.451   36.135
 qs_ot_get_p                       2020 12.9    0.009    0.010   33.835   34.397
 mp_alltoall_z11v                 12117 19.4   31.737   33.892   31.737   33.892
 -------------------------------------------------------------------------------

 The number of warnings for this run is : 1
 
 -------------------------------------------------------------------------------
  **** **** ******  **  PROGRAM ENDED AT                 2019-06-18 21:27:34.774
 ***** ** ***  *** **   PROGRAM RAN ON                                  nid03773
 **    ****   ******    PROGRAM RAN BY                                    vamodi
 ***** **    ** ** **   PROGRAM PROCESS ID                                 41513
  **** **  *******  **  PROGRAM STOPPED IN   /fs3/d118/d118/vamodi/neb-vacuum/tt
Application 36224496 resources: utime ~293420s, stime ~3250s, Rss ~108252, inblocks ~3442053, outblocks ~3145768
